 vasp.5.4.4.18Apr17-6-g9f103f2a35 (build Oct 12 2018 15:21:48) complex          
  
 executed on             LinuxIFC date 2019.08.02  11:26:55
 running on   16 total cores
 distrk:  each k-point on   16 cores,    1 groups
 distr:  one band on NCORES_PER_BAND=   4 cores,    4 groups


--------------------------------------------------------------------------------------------------------


 INCAR:
 POTCAR:    PAW_PBE O 08Apr2002                   
 POTCAR:    PAW_PBE H 15Jun2001                   

 ----------------------------------------------------------------------------- 
|                                                                             |
|  ADVICE TO THIS USER RUNNING 'VASP/VAMP'   (HEAR YOUR MASTER'S VOICE ...):  |
|                                                                             |
|      You have switched on vdW-DFT.                                          |
|      This routine was written and supplied by Jiri Klimes.                  |
|      We recommed that you carefully read and cite the following             |
|      publication                                                            |
|      J. Klimes, D.R. Bowler, A. Michelides                                  |
|        J. Phys.: Cond Matt. 22 022201 (2010)                                |
|      J. Klimes, D.R. Bowler, A. Michelides                                  |
|        Phys. Rev. B. 83, 195131 (2011)                                      |
|      and references therein.                                                |
|                                                                             |
 ----------------------------------------------------------------------------- 

 POTCAR:    PAW_PBE O 08Apr2002                   
   VRHFIN =O: s2p4                                                              
   LEXCH  = PE                                                                  
   EATOM  =   432.3788 eV,   31.7789 Ry                                         
                                                                                
   TITEL  = PAW_PBE O 08Apr2002                                                 
   LULTRA =        F    use ultrasoft PP ?                                      
   IUNSCR =        1    unscreen: 0-lin 1-nonlin 2-no                           
   RPACOR =    1.200    partial core radius                                     
   POMASS =   16.000; ZVAL   =    6.000    mass and valenz                      
   RCORE  =    1.520    outmost cutoff radius                                   
   RWIGS  =    1.550; RWIGS  =    0.820    wigner-seitz radius (au A)           
   ENMAX  =  400.000; ENMIN  =  300.000 eV                                      
   ICORE  =        2    local potential                                         
   LCOR   =        T    correct aug charges                                     
   LPAW   =        T    paw PP                                                  
   EAUG   =  605.392                                                            
   DEXC   =    0.000                                                            
   RMAX   =    1.553    core radius for proj-oper                               
   RAUG   =    1.300    factor for augmentation sphere                          
   RDEP   =    1.550    radius for radial grids                                 
   RDEPT  =    1.329    core radius for aug-charge                              
                                                                                
   Atomic configuration                                                         
    4 entries                                                                   
     n  l   j            E        occ.                                          
     1  0  0.50      -514.6923   2.0000                                         
     2  0  0.50       -23.9615   2.0000                                         
     2  1  0.50        -9.0305   4.0000                                         
     3  2  1.50        -9.5241   0.0000                                         
   Description                                                                  
     l       E           TYP  RCUT    TYP  RCUT                                 
     0    -23.9615318     23  1.200                                             
     0     -9.5240782     23  1.200                                             
     1     -9.0304911     23  1.520                                             
     1      8.1634956     23  1.520                                             
     2     -9.5240782      7  1.500                                             
  local pseudopotential read in
  partial core-charges read in
  partial kinetic energy density read in
  kinetic energy density of atom read in
  atomic valenz-charges read in
  non local Contribution for L=           0  read in
    real space projection operators read in
  non local Contribution for L=           0  read in
    real space projection operators read in
  non local Contribution for L=           1  read in
    real space projection operators read in
  non local Contribution for L=           1  read in
    real space projection operators read in
    PAW grid and wavefunctions read in
 
   number of l-projection  operators is LMAX  =           4
   number of lm-projection operators is LMMAX =           8
 
 POTCAR:    PAW_PBE H 15Jun2001                   
   VRHFIN =H: ultrasoft test                                                    
   LEXCH  = PE                                                                  
   EATOM  =    12.4884 eV,    0.9179 Ry                                         
                                                                                
   TITEL  = PAW_PBE H 15Jun2001                                                 
   LULTRA =        F    use ultrasoft PP ?                                      
   IUNSCR =        0    unscreen: 0-lin 1-nonlin 2-no                           
   RPACOR =    0.000    partial core radius                                     
   POMASS =    1.000; ZVAL   =    1.000    mass and valenz                      
   RCORE  =    1.100    outmost cutoff radius                                   
   RWIGS  =    0.700; RWIGS  =    0.370    wigner-seitz radius (au A)           
   ENMAX  =  250.000; ENMIN  =  200.000 eV                                      
   RCLOC  =    0.701    cutoff for local pot                                    
   LCOR   =        T    correct aug charges                                     
   LPAW   =        T    paw PP                                                  
   EAUG   =  400.000                                                            
   RMAX   =    1.123    core radius for proj-oper                               
   RAUG   =    1.200    factor for augmentation sphere                          
   RDEP   =    1.112    radius for radial grids                                 
   RDEPT  =    0.926    core radius for aug-charge                              
                                                                                
   Atomic configuration                                                         
    2 entries                                                                   
     n  l   j            E        occ.                                          
     1  0  0.50        -6.4927   1.0000                                         
     2  1  0.50        -3.4015   0.0000                                         
   Description                                                                  
     l       E           TYP  RCUT    TYP  RCUT                                 
     0     -6.4927494     23  1.100                                             
     0      6.8029130     23  1.100                                             
     1     -4.0817478     23  1.100                                             
  local pseudopotential read in
  atomic valenz-charges read in
  non local Contribution for L=           0  read in
    real space projection operators read in
  non local Contribution for L=           0  read in
    real space projection operators read in
  non local Contribution for L=           1  read in
    real space projection operators read in
    PAW grid and wavefunctions read in
 
   number of l-projection  operators is LMAX  =           3
   number of lm-projection operators is LMMAX =           5
 

 ----------------------------------------------------------------------------- 
|                                                                             |
|  ADVICE TO THIS USER RUNNING 'VASP/VAMP'   (HEAR YOUR MASTER'S VOICE ...):  |
|                                                                             |
|      You enforced a specific xc-type in the INCAR file,                     |
|      a different type was found on the POTCAR file                          |
|          I HOPE YOU KNOW, WHAT YOU ARE  DOING                               |
|                                                                             |
 ----------------------------------------------------------------------------- 

  PAW_PBE O 08Apr2002                   :
 energy of atom  1       EATOM= -432.3788
 kinetic energy error for atom=    0.0224 (will be added to EATOM!!)
  PAW_PBE H 15Jun2001                   :
 energy of atom  2       EATOM=  -12.4884
 kinetic energy error for atom=    0.0020 (will be added to EATOM!!)
 
 
 POSCAR:  O  H                                   
  positions in cartesian coordinates
  No initial velocities read in
 exchange correlation table for  LEXCH =       17
   RHO(1)=    0.500       N(1)  =     2000
   RHO(2)=  100.500       N(2)  =     4000

 VTST: version 3.2, (02/03/18)

 CHAIN: initializing optimizer
 
 OPT: Using VASP Conjugate-Gradient optimizer
 CHAIN: Read ICHAIN            0
 
 POSCAR:  O  H                                   
  positions in cartesian coordinates
  No initial velocities read in
 


--------------------------------------------------------------------------------------------------------


 ion  position               nearest neighbor table
   1  0.500  0.500  0.520-   2 0.97   3 0.97
   2  0.500  0.549  0.480-   1 0.97
   3  0.500  0.451  0.480-   1 0.97
 
  LATTYP: Found a simple orthorhombic cell.
 ALAT       =    14.0000000000
 B/A-ratio  =     1.0425935000
 C/A-ratio  =     1.1090341429
  
  Lattice vectors:
  
 A1 = ( -14.0000000000,   0.0000000000,   0.0000000000)
 A2 = (   0.0000000000,   0.0000000000, -14.5963090000)
 A3 = (   0.0000000000, -15.5264780000,   0.0000000000)


Analysis of symmetry for initial positions (statically):
=====================================================================
 Subroutine PRICEL returns:
 Original cell was already a primitive cell.
 

 Routine SETGRP: Setting up the symmetry group for a 
 simple orthorhombic supercell.


 Subroutine GETGRP returns: Found  4 space group operations
 (whereof  4 operations were pure point group operations)
 out of a pool of  8 trial point group operations.


The static configuration has the point symmetry C_2v.


Analysis of symmetry for dynamics (positions and initial velocities):
=====================================================================
 Subroutine PRICEL returns:
 Original cell was already a primitive cell.
 

 Routine SETGRP: Setting up the symmetry group for a 
 simple orthorhombic supercell.


 Subroutine GETGRP returns: Found  4 space group operations
 (whereof  4 operations were pure point group operations)
 out of a pool of  8 trial point group operations.


The dynamic configuration has the point symmetry C_2v.


 Subroutine INISYM returns: Found  4 space group operations
 (whereof  4 operations are pure point group operations),
 and found     1 'primitive' translations

 
 
 KPOINTS: KPOINTS created by Atomic Simulation Env

Automatic generation of k-mesh.
Space group operators:
 irot       det(A)        alpha          n_x          n_y          n_z        tau_x        tau_y        tau_z
    1     1.000000     0.000001     1.000000     0.000000     0.000000     0.000000     0.000000     0.000000
    2    -1.000000   180.000000     0.000000     1.000000     0.000000     0.000000     0.000000     0.000000
    3     1.000000   179.999999     0.000000     0.000000     1.000000     0.000000     0.000000     0.000000
    4    -1.000000   180.000000     1.000000     0.000000     0.000000     0.000000     0.000000     0.000000
 
 Subroutine IBZKPT returns following result:
 ===========================================
 
 Found      1 irreducible k-points:
 
 Following reciprocal coordinates:
            Coordinates               Weight
  0.000000  0.000000  0.000000      1.000000
 
 Following cartesian coordinates:
            Coordinates               Weight
  0.000000  0.000000  0.000000      1.000000
 


--------------------------------------------------------------------------------------------------------




 Dimension of arrays:
   k-points           NKPTS =      1   k-points in BZ     NKDIM =      1   number of bands    NBANDS=      8
   number of dos      NEDOS =    301   number of ions     NIONS =      3
   non local maximal  LDIM  =      4   non local SUM 2l+1 LMDIM =      8
   total plane-waves  NPLWV = ******
   max r-space proj   IRMAX =      1   max aug-charges    IRDMAX=   5922
   dimension x,y,z NGX =   108 NGY =  120 NGZ =  108
   dimension x,y,z NGXF=   216 NGYF=  240 NGZF=  216
   support grid    NGXF=   216 NGYF=  240 NGZF=  216
   ions per type =               1   2
   NGX,Y,Z   is equivalent  to a cutoff of  12.82, 12.85, 12.30 a.u.
   NGXF,Y,Z  is equivalent  to a cutoff of  25.65, 25.70, 24.60 a.u.

 SYSTEM =  unknown system                          
 POSCAR =   O  H                                   

 Startparameter for this run:
   NWRITE =      2    write-flag & timer
   PREC   = accura    normal or accurate (medium, high low for compatibility)
   ISTART =      1    job   : 0-new  1-cont  2-samecut
   ICHARG =      0    charge: 1-file 2-atom 10-const
   ISPIN  =      1    spin polarized calculation?
   LNONCOLLINEAR =      F non collinear calculations
   LSORBIT =      F    spin-orbit coupling
   INIWAV =      1    electr: 0-lowe 1-rand  2-diag
   LASPH  =      F    aspherical Exc in radial PAW
   METAGGA=      F    non-selfconsistent MetaGGA calc.

 Electronic Relaxation 1
   ENCUT  =  500.0 eV  36.75 Ry    6.06 a.u.  25.53 28.31 26.61*2*pi/ulx,y,z
   ENINI  =  500.0     initial cutoff
   ENAUG  =  605.4 eV  augmentation charge cutoff
   NELM   =    350;   NELMIN=  2; NELMDL=  0     # of ELM steps 
   EDIFF  = 0.1E-03   stopping-criterion for ELM
   LREAL  =      F    real-space projection
   NLSPLINE    = F    spline interpolate recip. space projectors
   LCOMPAT=      F    compatible to vasp.4.4
   GGA_COMPAT  = T    GGA compatible to vasp.4.4-vasp.4.6
   LMAXPAW     = -100 max onsite density
   LMAXMIX     =    2 max onsite mixed and CHGCAR
   VOSKOWN=      0    Vosko Wilk Nusair interpolation
   ROPT   =    0.00000   0.00000
 Ionic relaxation
   EDIFFG = -.3E-01   stopping-criterion for IOM
   NSW    =    200    number of steps for IOM
   NBLOCK =      1;   KBLOCK =    200    inner block; outer block 
   IBRION =      2    ionic relax: 0-MD 1-quasi-New 2-CG
   NFREE  =      1    steps in history (QN), initial steepest desc. (CG)
   ISIF   =      2    stress and relaxation
   IWAVPR =     11    prediction:  0-non 1-charg 2-wave 3-comb
   ISYM   =      2    0-nonsym 1-usesym 2-fastsym
   LCORR  =      T    Harris-Foulkes like correction to forces

   POTIM  = 0.5000    time-step for ionic-motion
   TEIN   =    0.0    initial temperature
   TEBEG  =    0.0;   TEEND  =   0.0 temperature during run
   SMASS  =  -3.00    Nose mass-parameter (am)
   estimated Nose-frequenzy (Omega)   =  0.10E-29 period in steps =****** mass=  -0.448E-26a.u.
   SCALEE = 1.0000    scale energy and forces
   NPACO  =    256;   APACO  = 16.0  distance and # of slots for P.C.
   PSTRESS=    0.0 pullay stress

  Mass of Ions in am
   POMASS =  16.00  1.00
  Ionic Valenz
   ZVAL   =   6.00  1.00
  Atomic Wigner-Seitz radii
   RWIGS  =  -1.00 -1.00
  virtual crystal weights 
   VCA    =   1.00  1.00
   NELECT =       8.0000    total number of electrons
   NUPDOWN=      -1.0000    fix difference up-down

 DOS related values:
   EMIN   =  10.00;   EMAX   =-10.00  energy-range for DOS
   EFERMI =   0.00
   ISMEAR =    -1;   SIGMA  =   0.10  broadening in eV -4-tet -1-fermi 0-gaus

 Electronic relaxation 2 (details)
   IALGO  =     38    algorithm
   LDIAG  =      T    sub-space diagonalisation (order eigenvalues)
   LSUBROT=      F    optimize rotation matrix (better conditioning)
   TURBO    =      0    0=normal 1=particle mesh
   IRESTART =      0    0=no restart 2=restart with 2 vectors
   NREBOOT  =      0    no. of reboots
   NMIN     =      0    reboot dimension
   EREF     =   0.00    reference energy to select bands
   IMIX   =      4    mixing-type and parameters
     AMIX     =   0.40;   BMIX     =  1.00
     AMIX_MAG =   1.60;   BMIX_MAG =  1.00
     AMIN     =   0.10
     WC   =   100.;   INIMIX=   1;  MIXPRE=   1;  MAXMIX= -45

 Intra band minimization:
   WEIMIN = 0.0010     energy-eigenvalue tresh-hold
   EBREAK =  0.31E-05  absolut break condition
   DEPER  =   0.30     relativ break condition  

   TIME   =   0.40     timestep for ELM

  volume/ion in A,a.u.               =    1057.60      7137.06
  Fermi-wavevector in a.u.,A,eV,Ry     =   0.222821  0.421071  0.675521  0.049649
  Thomas-Fermi vector in A             =   1.006543
 
 Write flags
   LWAVE        =      T    write WAVECAR
   LDOWNSAMPLE  =      F    k-point downsampling of WAVECAR
   LCHARG       =      T    write CHGCAR
   LVTOT        =      F    write LOCPOT, total local potential
   LVHAR        =      F    write LOCPOT, Hartree potential only
   LELF         =      F    write electronic localiz. function (ELF)
   LORBIT       =      0    0 simple, 1 ext, 2 COOP (PROOUT), +10 PAW based schemes


 Dipole corrections
   LMONO  =      F    monopole corrections only (constant potential shift)
   LDIPOL =      F    correct potential (dipole corrections)
   IDIPOL =      0    1-x, 2-y, 3-z, 4-all directions 
   EPSILON=  1.0000000 bulk dielectric constant

 Exchange correlation treatment:
   GGA     =    BF    GGA type
   LEXCH   =    17    internal setting for exchange type
   VOSKOWN=      0    Vosko Wilk Nusair interpolation
   LHFCALC =     F    Hartree Fock is set to
   LHFONE  =     F    Hartree Fock one center treatment
   AEXX    =    0.0000 exact exchange contribution

 vdW DFT:
   LUSE_VDW   =     T    switch on vdW DFT
   Zab_VDW    =******    correlation parameter
   PARAM1     =0.1234
   PARAM2     =1.0000
   PARAM3     =0.0000
   -- rVV10 --
   BPARAM     = 6.3000
   CPARAM     = 0.0093

 Linear response parameters
   LEPSILON=     F    determine dielectric tensor
   LRPA    =     F    only Hartree local field effects (RPA)
   LNABLA  =     F    use nabla operator in PAW spheres
   LVEL    =     F    velocity operator in full k-point grid
   LINTERFAST=   F  fast interpolation
   KINTER  =     0    interpolate to denser k-point grid
   CSHIFT  =0.1000    complex shift for real part using Kramers Kronig
   OMEGAMAX=  -1.0    maximum frequency
   DEG_THRESHOLD= 0.2000000E-02 threshold for treating states as degnerate
   RTIME   =   -0.100 relaxation time in fs
  (WPLASMAI=    0.000 imaginary part of plasma frequency in eV, 0.658/RTIME)
   DFIELD  = 0.0000000 0.0000000 0.0000000 field for delta impulse in time
 
 Orbital magnetization related:
   ORBITALMAG=     F  switch on orbital magnetization
   LCHIMAG   =     F  perturbation theory with respect to B field
   DQ        =  0.001000  dq finite difference perturbation B field
   LLRAUG    =     F  two centre corrections for induced B field



--------------------------------------------------------------------------------------------------------


 conjugate gradient relaxation of ions
 charge density and potential will be updated during run
 non-spin polarized calculation
 Variant of blocked Davidson
 Davidson routine will perform the subspace rotation
 perform sub-space diagonalisation
    after iterative eigenvector-optimisation
 modified Broyden-mixing scheme, WC =      100.0
 initial mixing is a Kerker type mixing with AMIX =  0.4000 and BMIX =      1.0000
 Hartree-type preconditioning will be used
 using additional bands            4
 reciprocal scheme for non local part
 use partial core corrections
 calculate Harris-corrections to forces 
   (improved forces if not selfconsistent)
 use gradient corrections 
 use of overlap-Matrix (Vanderbilt PP)
 Fermi-smearing in eV        SIGMA  =   0.10


--------------------------------------------------------------------------------------------------------


  energy-cutoff  :      500.00
  volume of cell :     3172.81
      direct lattice vectors                 reciprocal lattice vectors
    14.000000000  0.000000000  0.000000000     0.071428571  0.000000000  0.000000000
     0.000000000 15.526478000  0.000000000     0.000000000  0.064406107  0.000000000
     0.000000000  0.000000000 14.596309000     0.000000000  0.000000000  0.068510471

  length of vectors
    14.000000000 15.526478000 14.596309000     0.071428571  0.064406107  0.068510471


 
 old parameters found on file WAVECAR:
  energy-cutoff  :      500.00
  volume of cell :     3172.81
      direct lattice vectors                 reciprocal lattice vectors
    14.000000000  0.000000000  0.000000000     0.071428571  0.000000000  0.000000000
     0.000000000 15.526478000  0.000000000     0.000000000  0.064406107  0.000000000
     0.000000000  0.000000000 14.596309000     0.000000000  0.000000000  0.068510471

  length of vectors

 
 k-points in units of 2pi/SCALE and weight: KPOINTS created by Atomic Simulation Env
   0.00000000  0.00000000  0.00000000       1.000
 
 k-points in reciprocal lattice and weights: KPOINTS created by Atomic Simulation Env
   0.00000000  0.00000000  0.00000000       1.000
 
 position of ions in fractional coordinates (direct lattice) 
   0.50000000  0.50000000  0.52042671
   0.50000000  0.54915725  0.47957329
   0.50000000  0.45084275  0.47957329
 
 position of ions in cartesian coordinates  (Angst):
   7.00000000  7.76323900  7.59630900
   7.00000000  8.52647800  7.00000000
   7.00000000  7.00000000  7.00000000
 


--------------------------------------------------------------------------------------------------------


 k-point  1 :   0.0000 0.0000 0.0000  plane waves:   80623

 maximum and minimum number of plane-waves per node :     20157    20155

 maximum number of plane-waves:     80623
 maximum index in each direction: 
   IXMAX=   25   IYMAX=   28   IZMAX=   26
   IXMIN=  -25   IYMIN=  -28   IZMIN=  -26


 parallel 3D FFT for wavefunctions:
    minimum data exchange during FFTs selected (reduces bandwidth)
 parallel 3D FFT for charge:
    minimum data exchange during FFTs selected (reduces bandwidth)


 total amount of memory used by VASP MPI-rank0   123792. kBytes
=======================================================================

   base      :      30000. kBytes
   nonl-proj :       3548. kBytes
   fftplans  :      34636. kBytes
   grid      :      54960. kBytes
   one-center:          3. kBytes
   wavefun   :        645. kBytes
 
     INWAV:  cpu time    0.0505: real time    0.0914
 Broyden mixing: mesh for mixing (old mesh)
   NGX = 51   NGY = 57   NGZ = 53
  (NGX  =216   NGY  =240   NGZ  =216)
  gives a total of 154071 points

 charge density for first step will be calculated from the start-wavefunctions


--------------------------------------------------------------------------------------------------------


 Maximum index for augmentation-charges          326 (set IRDMAX)


--------------------------------------------------------------------------------------------------------


 initial charge from wavefunction
 First call to EWALD:  gamma=   0.121
 Maximum number of real-space cells 3x 3x 3
 Maximum number of reciprocal cells 3x 3x 3

    FEWALD:  cpu time    0.0025: real time    0.0025


--------------------------------------- Iteration      1(   1)  ---------------------------------------


vdW kernel read from vdw_kernel.bindat
  0.0000  0.2424  0.5071  0.7962  1.1119  1.4567  1.8333  2.2446  2.6937  3.1842
  3.7199  4.3049  4.9438  5.6415  6.4036  7.2358  8.1446  9.1372 10.2212 11.4050
 12.6979 14.1099 15.6519 17.3360 19.1751 21.1837 23.3773 25.7729 28.3892 31.2465
 34.3669 37.7748 41.4965 45.5611 50.0000
 
    POTLOK:  cpu time   31.0934: real time   31.1255
    SETDIJ:  cpu time    0.0027: real time    0.0034
     EDDAV:  cpu time    0.3020: real time    0.3151
       DOS:  cpu time    0.0004: real time    0.0021
    CHARGE:  cpu time    0.1982: real time    0.1983
    MIXING:  cpu time    0.0182: real time    0.0182
    --------------------------------------------
      LOOP:  cpu time   31.6149: real time   31.6627

 eigenvalue-minimisations  :    32
 total energy-change (2. order) :-0.1280699E+02  (-0.1596567E-05)
 number of electron       8.0000007 magnetization 
 augmentation part        0.6967986 magnetization 

 Broyden mixing:
  rms(total) = 0.53189E-03    rms(broyden)= 0.53169E-03
  rms(prec ) = 0.59855E-03
  weight for this iteration     100.00

 Free energy of the ion-electron system (eV)
  ---------------------------------------------------
  alpha Z        PSCENC =         0.07067908
  Ewald energy   TEWEN  =        99.21957327
  -Hartree energ DENC   =      -495.09352675
  -exchange      EXHF   =         0.00000000
  -V(xc)+E(xc)   XCENC  =        34.51502528
  PAW double counting   =       547.05841527     -549.14877591
  entropy T*S    EENTRO =        -0.00000000
  eigenvalues    EBANDS =      -112.64080822
  atomic energy  EATOM  =       463.21242928
  Solvation  Ediel_sol  =         0.00000000
  ---------------------------------------------------
  free energy    TOTEN  =       -12.80698870 eV

  energy without entropy =      -12.80698870  energy(sigma->0) =      -12.80698870


--------------------------------------------------------------------------------------------------------




--------------------------------------- Iteration      1(   2)  ---------------------------------------


    POTLOK:  cpu time   30.7262: real time   30.7564
    SETDIJ:  cpu time    0.0019: real time    0.0019
     EDDAV:  cpu time    0.1781: real time    0.1783
       DOS:  cpu time    0.0001: real time    0.0001
    --------------------------------------------
      LOOP:  cpu time   30.9062: real time   30.9366

 eigenvalue-minimisations  :    16
 total energy-change (2. order) : 0.7376361E-06  (-0.4839584E-06)
 number of electron       8.0000007 magnetization 
 augmentation part        0.6967986 magnetization 

 Free energy of the ion-electron system (eV)
  ---------------------------------------------------
  alpha Z        PSCENC =         0.07067908
  Ewald energy   TEWEN  =        99.21957327
  -Hartree energ DENC   =      -495.07927848
  -exchange      EXHF   =         0.00000000
  -V(xc)+E(xc)   XCENC  =        34.51417913
  PAW double counting   =       547.03357576     -549.12373181
  entropy T*S    EENTRO =        -0.00000000
  eigenvalues    EBANDS =      -112.65441419
  atomic energy  EATOM  =       463.21242928
  Solvation  Ediel_sol  =         0.00000000
  ---------------------------------------------------
  free energy    TOTEN  =       -12.80698796 eV

  energy without entropy =      -12.80698796  energy(sigma->0) =      -12.80698796


--------------------------------------------------------------------------------------------------------




 average (electrostatic) potential at core
  the test charge radii are     0.7215  0.5201
  (the norm of the test charge is              1.0000)
       1 -81.1708       2 -45.9091       3 -45.9091
 
 
 
 E-fermi :  -5.0390     XC(G=0):  -0.2239     alpha+bet : -0.0410


 k-point     1 :       0.0000    0.0000    0.0000
  band No.  band energies     occupation 
      1     -25.7627      2.00000
      2     -13.4454      2.00000
      3      -9.6181      2.00000
      4      -7.5010      2.00000
      5      -1.4138      0.00000
      6       0.0878      0.00000
      7       0.1135      0.00000
      8       0.4809      0.00000


--------------------------------------------------------------------------------------------------------


 soft charge-density along one line, spin component           1
         0         1         2         3         4         5         6         7         8         9
 total charge-density along one line
 
 pseudopotential strength for first ion, spin component:           1
 13.869 -17.005   0.000   0.117   0.000  -0.000  -0.147  -0.000
-17.005  20.881  -0.000  -0.150  -0.000   0.000   0.189   0.000
  0.000  -0.000 -10.619   0.000   0.000  13.169  -0.000  -0.000
  0.117  -0.150   0.000 -10.528  -0.000  -0.000  13.047   0.000
  0.000  -0.000   0.000  -0.000 -10.394  -0.000   0.000  12.867
 -0.000   0.000  13.169  -0.000  -0.000 -16.261   0.000   0.000
 -0.147   0.189  -0.000  13.047   0.000   0.000 -16.096  -0.000
 -0.000   0.000  -0.000   0.000  12.867   0.000  -0.000 -15.853
 total augmentation occupancy for first ion, spin component:           1
  2.717   0.430   0.000  -0.451   0.000   0.000  -0.177   0.000
  0.430   0.126   0.000  -0.431   0.000   0.000  -0.076   0.000
  0.000   0.000   2.402   0.000   0.000   0.459   0.000   0.000
 -0.451  -0.431   0.000   2.289   0.000   0.000   0.324   0.000
  0.000   0.000   0.000   0.000   2.110   0.000   0.000   0.121
  0.000   0.000   0.459   0.000   0.000   0.088   0.000   0.000
 -0.177  -0.076   0.000   0.324   0.000   0.000   0.051   0.000
  0.000   0.000   0.000   0.000   0.121   0.000   0.000   0.007


------------------------ aborting loop because EDIFF is reached ----------------------------------------


    CHARGE:  cpu time    0.1975: real time    0.1978
    FORLOC:  cpu time    0.0339: real time    0.0339
    FORNL :  cpu time    0.0070: real time    0.0070
    STRESS:  cpu time    0.1461: real time    0.1462
    FORCOR:  cpu time   30.8669: real time   30.8959
    FORHAR:  cpu time    0.2031: real time    0.2035
    MIXING:  cpu time    0.0172: real time    0.0172
    OFIELD:  cpu time    0.0000: real time    0.0000

  FORCE on cell =-STRESS in cart. coord.  units (eV):
  Direction    XX          YY          ZZ          XY          YZ          ZX
  --------------------------------------------------------------------------------------
  Alpha Z     0.07068     0.07068     0.07068
  Ewald     -25.28773    85.77861    38.72870    -0.00000    -0.00000    -0.00000
  Hartree   158.03008   170.28488   166.76666    -0.00000    -0.00000    -0.00000
  E(xc)     -38.55969   -37.65420   -38.01998     0.00000    -0.00000    -0.00000
  Local    -241.25850  -329.02346  -293.25558     0.00000    -0.00000    -0.00000
  n-local   -30.94058   -30.31938   -31.13792     0.00000     0.00000    -0.00000
  augment     8.16222     5.80801     6.75325    -0.00000     0.00000     0.00000
  Kinetic   169.70681   134.83148   149.86580     0.00000    -0.00000     0.00000
  Fock        0.00000     0.00000     0.00000     0.00000     0.00000     0.00000
  -------------------------------------------------------------------------------------
  Total      -0.07672    -0.22337    -0.22839     0.00000     0.00000     0.00000
  in kB      -0.03874    -0.11280    -0.11533     0.00000     0.00000     0.00000
  external pressure =       -0.09 kB  Pullay stress =        0.00 kB


 VOLUME and BASIS-vectors are now :
 -----------------------------------------------------------------------------
  energy-cutoff  :      500.00
  volume of cell :     3172.81
      direct lattice vectors                 reciprocal lattice vectors
    14.000000000  0.000000000  0.000000000     0.071428571  0.000000000  0.000000000
     0.000000000 15.526478000  0.000000000     0.000000000  0.064406107  0.000000000
     0.000000000  0.000000000 14.596309000     0.000000000  0.000000000  0.068510471

  length of vectors
    14.000000000 15.526478000 14.596309000     0.071428571  0.064406107  0.068510471


 FORCES acting on ions
    electron-ion (+dipol)            ewald-force                    non-local-force                 convergence-correction
 -----------------------------------------------------------------------------------------------
   0.656E-12 0.170E-11 -.640E+02   0.121E-16 -.284E-13 0.113E+03   0.000E+00 0.000E+00 -.496E+02   -.900E-14 0.325E-14 -.989E-03
   0.472E-13 -.719E+02 0.517E+02   -.604E-18 0.787E+02 -.566E+02   0.827E-24 -.690E+01 0.502E+01   -.740E-15 0.104E-03 -.122E-03
   0.459E-13 0.719E+02 0.517E+02   0.893E-17 -.787E+02 -.566E+02   0.827E-24 0.690E+01 0.502E+01   -.601E-15 -.104E-03 -.122E-03
 -----------------------------------------------------------------------------------------------
   0.750E-12 0.151E-11 0.395E+02   0.204E-16 0.000E+00 -.711E-14   0.165E-23 0.000E+00 -.395E+02   -.103E-13 0.472E-14 -.123E-02
 
 
 POSITION                                       TOTAL-FORCE (eV/Angst)
 -----------------------------------------------------------------------------------
      7.00000      7.76324      7.59631         0.000000      0.000000     -0.256191
      7.00000      8.52648      7.00000         0.000000     -0.105697      0.128095
      7.00000      7.00000      7.00000         0.000000      0.105697      0.128095
 -----------------------------------------------------------------------------------
    total drift:                                0.000000      0.000000      0.000031


--------------------------------------------------------------------------------------------------------



  FREE ENERGIE OF THE ION-ELECTRON SYSTEM (eV)
  ---------------------------------------------------
  free  energy   TOTEN  =       -12.80698796 eV

  energy  without entropy=      -12.80698796  energy(sigma->0) =      -12.80698796
 


--------------------------------------------------------------------------------------------------------


 BEEFens 2000 ensemble energies
             -0.872987240429877E+01
             -0.230325051694692E+00
             -0.187853845497508E+01
              0.608509487877189E+01
             -0.304364637849465E+01
             -0.232430141694831E+01
             -0.617163450980070E+01
             -0.131883228048528E+02
             -0.533983719755946E+01
             -0.572802415559048E+01
             -0.481505135823785E+01
              0.542950097396821E+00
              0.307829277023519E+00
             -0.264783794629864E-01
              0.468456895414676E+00
              0.650995512633779E+01
             -0.294775423108330E+01
             -0.190295052398043E+01
              0.301148057059901E+01
             -0.154440164752579E+02
              0.762270659312154E+01
             -0.300779838928966E+01
             -0.836223609969571E+00
             -0.143374142499971E+01
             -0.290105942027594E-01
             -0.856992896798058E+00
              0.124238936340080E+02
             -0.263865919149067E+01
             -0.116494406407813E+01
             -0.745159647616096E+01
              0.102078176207807E+02
             -0.122376694948870E+01
             -0.564828611038541E+01
              0.279192198850536E+01
             -0.431370833404685E+00
              0.340557261859032E+01
             -0.113853837326296E+00
              0.438753691204649E+00
              0.466517526978685E+01
             -0.141511677735054E+02
              0.772394607807126E+01
              0.158759438653895E+01
             -0.123512153153243E+01
             -0.429899307096246E+01
              0.169223750068004E+01
             -0.223947761977522E+01
              0.663580554945683E+01
              0.502092040507208E+01
             -0.321499395451204E+01
             -0.425684235469029E+01
             -0.413416362743514E+01
             -0.510070607932728E+01
              0.270764051550825E+01
             -0.718971179580227E+01
              0.203076026564673E+01
              0.842436044459267E+01
              0.982515419498639E+01
              0.467004474730188E+01
              0.245586173995363E+01
              0.420304331094818E+01
              0.126602976223725E+02
              0.270147926323369E+01
             -0.771466780573641E+01
             -0.166256748286195E+01
             -0.394259585228984E+01
              0.864567309399144E+01
             -0.105014845844920E+02
             -0.847326650681063E+01
             -0.430635993482163E+01
             -0.204237862795922E+01
             -0.578244849515655E+01
              0.386717335272176E+01
              0.182123681183596E+01
              0.191912592128854E+01
             -0.543283678479008E+01
             -0.486310652892206E+01
             -0.782797466027914E+01
              0.479625807858272E+01
             -0.449760277680298E+01
              0.417954717158391E+01
             -0.102936387456418E+01
             -0.419667740689884E+01
             -0.744853804298880E+01
             -0.213697545994010E+01
             -0.207987367158347E+01
             -0.211270250426103E+01
              0.553412958863948E+01
              0.102737949966317E+02
             -0.600751419736304E+01
             -0.110633646493252E+02
             -0.269045790172396E+01
              0.153732056766201E+02
             -0.780799654118846E+01
              0.439603124348849E+01
             -0.134206555316572E+01
             -0.867975101496451E+01
              0.390675752085542E+01
              0.466178323349075E+01
             -0.203095842876670E+01
              0.430840617403935E+01
             -0.376634190448368E+01
             -0.782608716777145E+01
              0.133657869173246E+02
              0.615841634490168E+01
              0.351475654601595E+01
              0.164768930100737E+01
              0.276315982892455E+01
              0.114709895660074E+02
             -0.379445761005738E+01
              0.499902748025384E+00
             -0.194544287992359E+02
              0.275969681144097E+01
             -0.941157107814129E+01
              0.180835989615129E+01
              0.292790704533053E+01
             -0.485012072768085E+01
             -0.723672430166205E+01
              0.569726501412205E+00
             -0.422750134507245E+01
              0.558451047651148E+01
             -0.635937266869266E+01
             -0.790897019750801E+00
             -0.528624040812746E+01
             -0.360260515745935E+00
              0.264423811280263E+00
              0.271363203005451E+01
              0.309384188685300E-01
             -0.102675214051203E+01
              0.888723646280503E+01
              0.127081963567856E+02
              0.674548791332761E+01
              0.984092611964697E+01
             -0.197007619168003E+01
              0.123541107670771E+01
              0.729100730595084E+01
             -0.147625676063612E-01
             -0.105538581216169E+02
             -0.589799292117369E+01
             -0.689475275285910E+01
             -0.412278424329311E+01
              0.369921472609237E+01
             -0.166739386215313E+02
             -0.184510308910141E+01
              0.612658818125738E+01
             -0.570387825596286E+01
             -0.440806797313202E+01
              0.759035483464434E+01
              0.669323928889650E+01
             -0.418534308194622E+01
              0.372657409355512E+01
             -0.352226305509614E+01
              0.522329750849723E+01
              0.104950929375200E+01
              0.194537978672187E+01
             -0.117416843344197E+02
             -0.676564038102220E+01
             -0.135797884167746E+01
             -0.383404645727158E+00
             -0.567113573236587E+01
              0.152089470680552E+02
             -0.198583673312629E+01
             -0.418288377339088E+01
              0.550068602291167E+01
             -0.637388554358734E+01
             -0.503379857084123E+01
              0.438191678130831E+01
              0.150865604025519E+01
              0.153066077240646E+01
              0.186460747492823E+01
             -0.151607770705419E+01
              0.188134150203130E+01
              0.819743980127209E+01
             -0.398264342325648E+01
              0.281898549133811E+01
              0.125001432923309E+02
              0.433094548306767E+01
             -0.615695037881409E+00
             -0.260160244706574E+01
              0.213092301949185E+02
             -0.308580899816203E+01
              0.536231451628900E+01
              0.384107939243352E+01
              0.428180507570137E+01
              0.128675598311164E+02
              0.656252810190354E+01
             -0.603752987355051E+00
              0.316647483293247E+01
              0.697587497480215E+01
              0.520962815119842E+01
             -0.820341947348770E+01
              0.131099888749652E+02
             -0.120373575686975E+02
             -0.189603130390370E+01
              0.788706303495621E+01
              0.170362681237199E+01
              0.593436376753743E+00
              0.417019908254811E+01
              0.263709160264576E+01
              0.457105009728457E+01
             -0.864038321001811E+01
              0.512574786115522E+00
             -0.340327344274837E+01
             -0.844289201417270E+00
             -0.218169954295718E+00
             -0.154524433133833E+01
             -0.809126551318201E+00
              0.117297507570058E+02
             -0.807268228906391E+00
             -0.406843654339135E+01
             -0.364765929754892E+00
              0.187975463082429E+01
             -0.855784118033242E+01
             -0.694619508118009E+01
             -0.476242600867803E+01
             -0.862702451614911E+01
             -0.244666570496419E+01
             -0.566756646730676E+01
              0.250696092019031E+01
              0.141224186322102E-01
             -0.170152399255030E+01
             -0.117456964468136E+01
              0.859328673779512E+00
             -0.264467783051491E+01
              0.905427223908257E+01
             -0.118437099965538E+02
             -0.174135014488400E+01
             -0.215165435836282E+01
              0.237237746824417E+01
              0.270228844986822E+01
             -0.689774271961318E+01
             -0.188441625261659E+01
              0.621354069670917E+01
             -0.318152029861176E+01
              0.188778710857381E+01
              0.504922531927812E+01
             -0.655275309225374E-01
              0.159362792304260E+02
             -0.199101347409686E+01
             -0.498094696352672E+01
              0.185176672906110E+00
             -0.379415070387891E+01
              0.721525287869939E+01
             -0.618683675780148E+01
              0.183429339049445E+01
              0.729717752575245E+01
             -0.194355918985823E+01
              0.163734989064096E+02
              0.175541844992475E+02
             -0.984394207269888E+01
              0.793270808705449E+01
              0.285184127472382E+01
             -0.757298705459702E+01
              0.274263140909721E+01
              0.554609451917759E+01
              0.603395333306496E+01
              0.646389287990520E+00
              0.240869029925720E+01
              0.101579316007217E+02
             -0.319456646084921E+01
              0.153037098506146E+01
              0.962971563752065E+01
             -0.507462881840772E+01
             -0.288939566837308E+01
              0.789993918878250E+01
              0.425297003634512E+01
              0.106912305989373E+02
              0.435629423179283E+01
              0.158499046266320E+01
              0.343689653091802E+01
              0.582154633082533E+01
             -0.687590178111504E+01
              0.723389682496254E+00
              0.310542744230566E+01
              0.127897140480752E+01
              0.325386749259717E+01
             -0.851690466327331E+01
              0.464806457698042E+01
             -0.602668713781343E+01
             -0.435390443340055E+01
              0.245884834771004E+01
             -0.167440989498082E+01
              0.796548205521041E+01
             -0.263465430685508E+01
              0.380681612481867E+01
              0.423780873275935E+01
              0.109006067797941E+02
              0.750070841902323E+01
              0.711066576081157E+01
             -0.986316372993429E+00
             -0.117763707544337E+01
             -0.429804700130741E+01
              0.110702061580701E+02
              0.113830888806704E+02
              0.518727448830341E+01
             -0.358478928361068E+01
              0.690244398888596E+01
             -0.694079111265559E+00
              0.277407847649685E+01
              0.938171737942007E+01
             -0.342493435973985E+00
             -0.152788611192079E+01
             -0.339981510300760E+01
             -0.804628827708792E+01
              0.133038773352185E+02
              0.659589195035959E+01
             -0.857090182445626E+01
             -0.252144274839930E+01
              0.350835860889610E+01
             -0.167364444846052E+01
              0.880134608875724E+01
              0.217384994573741E+01
              0.111035184351837E+02
              0.386126142163467E+01
             -0.340265293835208E+01
              0.271969450852229E+01
             -0.879618257140841E+00
             -0.376808480091523E+01
              0.228156928758145E+01
              0.254820691957501E+01
              0.124218348773141E+02
              0.106420456783631E+02
              0.782723842815889E+01
              0.974537571356072E+01
              0.105464828841151E+01
             -0.375334976894399E+01
              0.184908057612751E+01
             -0.479001260966877E+01
             -0.747214237185470E+01
             -0.793761063949697E+01
             -0.422871544037441E+01
             -0.151943836429773E+02
             -0.476712572394326E+01
             -0.118753064841067E+02
              0.265379003628571E+01
             -0.644115980528336E+01
              0.659563902202559E+01
             -0.133117509951449E+02
             -0.417078070819552E+01
              0.611203709941813E+01
              0.296798516769176E+01
             -0.121172549426248E+02
              0.778361086662177E+01
             -0.386994863518237E+01
              0.757480632545821E+01
             -0.395226503497182E+01
             -0.106618951984961E+02
              0.232857155645818E+01
             -0.886982157957191E+01
             -0.116251429018532E+01
             -0.124177166330719E+00
              0.590627542826730E+01
              0.174212996092192E+02
             -0.615457051657683E+01
             -0.513160136674214E+01
             -0.788013924691100E+00
             -0.140740558307803E+01
             -0.110782704985495E+02
             -0.812738413154593E+01
              0.718486426344108E+01
             -0.292282794115381E+01
              0.265952323449655E+01
             -0.680765599904642E+01
             -0.193414193699204E+01
             -0.587983343097567E+01
              0.687484048761568E+01
              0.204910728971258E+01
             -0.339258116084295E+01
             -0.212887466433019E+01
              0.161650643933177E+01
             -0.114158264700721E+01
              0.559400519965617E+01
             -0.372816347400507E+01
              0.109698629384475E+01
              0.461624991201205E+01
              0.200942011042704E+01
             -0.296011325263984E+01
              0.216035612754052E+02
              0.796754806107984E+01
              0.103935577633941E+01
              0.108714712229673E+01
             -0.846336667377977E+01
              0.444588372296299E+01
             -0.104299569368163E+02
             -0.436017924783390E+01
             -0.815554787424914E+01
             -0.255851582898114E+01
              0.805545605673278E+01
             -0.795629827026533E+01
              0.312941115050284E+01
             -0.550399904434279E+00
              0.283271878102244E+00
             -0.477709460057445E+01
             -0.590188168667804E+01
             -0.761470631568443E+00
             -0.520076228513133E+01
             -0.315203035641964E+01
             -0.549252335347335E+01
             -0.912789754844203E+00
             -0.451087407736196E+01
             -0.685671460021326E+01
              0.325853460750627E+01
             -0.208469829581149E+01
              0.300984687344329E+01
              0.140171705374625E+01
             -0.102946050464290E+02
             -0.728828213635254E+01
             -0.645234687911787E+01
              0.472554708508022E+01
             -0.504721020391031E+00
             -0.870667417287591E+01
              0.788948917940361E+01
             -0.591157882504597E+01
              0.774022483495014E+01
             -0.416793460341728E+01
             -0.674241599696268E+01
              0.369919861600535E+01
             -0.984278201888454E+01
             -0.478519048375533E+01
              0.873454792581575E+01
              0.293964997169643E+01
             -0.553498036342886E+01
              0.767277114565264E+01
             -0.227795908579152E+01
             -0.490745259374300E+01
             -0.427368990922530E+01
             -0.723585080450920E+01
              0.340925420801031E+01
             -0.123715506798203E+02
             -0.111116897892173E+02
             -0.888204543523301E+00
             -0.401044566880866E+01
             -0.831771019220323E+01
              0.103750592503912E+02
              0.188413476650209E+02
             -0.364763105951263E+01
             -0.303095782055181E+00
             -0.879271162420456E+01
              0.903056909221391E+01
              0.287809286031791E+01
             -0.263324927615513E+01
             -0.528182244475446E+01
              0.192585735367065E+01
             -0.836678335733970E+01
             -0.179561691733659E+01
             -0.122736255817064E+02
              0.453888839607727E+01
              0.204936851893860E+01
             -0.434841335816188E+00
             -0.130209085913704E+01
             -0.532089903897491E+01
             -0.161285336498193E+01
              0.186370560766125E+02
             -0.220144818619478E+01
             -0.653029184475972E+01
             -0.944664735287262E+01
              0.185857897939228E+01
             -0.503968480968284E+01
              0.107136769128548E+01
              0.437453678030511E+01
              0.835507345608804E+00
              0.477964199424413E+01
              0.233288283565294E+01
              0.832975891319471E+01
              0.381923421408150E+01
             -0.483660839964831E+01
              0.655925030181153E+01
              0.497168245645624E+01
              0.175930420271245E+01
              0.568723102478018E+01
             -0.377518123011219E+01
              0.100728128909049E+02
              0.309402278892785E+01
             -0.453458391054768E+01
             -0.101537666937311E+01
             -0.231831908094809E+01
              0.256152664420443E+01
             -0.363335009711661E+01
             -0.108631832327605E+01
             -0.163232927539119E+01
              0.111616629057129E+02
              0.787483447192125E+01
             -0.936441967531798E+01
             -0.893707601281516E+00
             -0.732102058704945E+01
             -0.195222971482309E+01
             -0.325112619784288E+01
              0.125925530188539E+01
             -0.401204966597844E+00
             -0.382369960297606E+01
              0.179698662209169E+01
             -0.119904946992788E+01
             -0.140344821497190E+01
              0.119911085466851E+02
              0.230111435605271E+01
             -0.113264970748628E+02
             -0.586505446125858E+01
              0.130045527951109E+02
              0.330148363865282E+01
             -0.120683215563993E+01
              0.151462673705983E+02
             -0.258653475349594E+01
             -0.121438958711126E+01
             -0.149423253073751E+01
              0.207447406502596E+01
              0.424947104032884E+01
              0.591948708273353E+00
              0.405106675448020E+01
             -0.185830051704358E+01
             -0.507378325811696E+01
             -0.545548315935230E+01
             -0.683422086659814E+01
              0.608550914016715E+01
              0.206944918197127E+01
              0.534211727908512E+01
              0.225185182110462E+01
              0.123288121395224E+02
              0.250817959064952E+01
             -0.107961029000660E+02
             -0.463130069492638E+01
              0.918788707713198E+00
             -0.398832663318549E+01
              0.873663052102917E+01
             -0.196944923657686E+01
              0.225149240274031E+01
              0.734904051835987E+01
             -0.108788586355315E+02
              0.206260847878904E+02
              0.275888561582739E+01
              0.340310922857897E+01
              0.516039544305323E+01
              0.823299966437901E+00
             -0.398723193437874E+00
              0.467341592457355E+01
             -0.489330326102038E+01
              0.115972640508311E+02
              0.101869563686599E+02
             -0.536487277509577E+01
              0.252559754752190E+01
              0.984868125053303E+01
             -0.306754256082029E+01
              0.258388947672972E+01
              0.513387747593445E+01
              0.599633388816888E+01
             -0.104991693149995E+02
             -0.122996942577137E+01
             -0.413389253395577E+01
             -0.898115330164956E+00
             -0.105153016312056E+01
              0.401641063679499E+00
             -0.231572043789235E+01
             -0.402972171293939E+01
              0.179887257658465E+01
              0.118805774583262E+01
              0.748039524965188E+01
             -0.611554550935635E+01
              0.574930844755619E+01
              0.694208676225951E+01
             -0.179530394696696E+01
              0.108852584070978E+02
             -0.935944406540071E+01
             -0.143590427697542E+02
             -0.781843985574453E+00
             -0.769141907375939E+00
              0.411861628922537E+00
              0.106651990433332E+02
             -0.654020047552597E+00
              0.576193006745278E+01
              0.765583254648314E+01
              0.544744968986645E+01
             -0.689421049728338E+00
              0.863280277066605E+01
             -0.226552253506883E+01
             -0.503054698853751E+01
             -0.590151602900522E+01
              0.993503410157516E+00
              0.532741206676215E+01
             -0.670843637547648E+00
              0.509699234535513E+01
              0.698354612356340E-01
              0.809212481396559E+01
              0.250490533877976E+01
              0.105556422240571E+01
             -0.539474376766080E+00
              0.427786629797405E+01
              0.547443792079208E+01
              0.249950970478059E+01
             -0.319651049752370E+00
             -0.744104116874630E+01
              0.394539725170662E+01
              0.275482076971326E+01
              0.505586755946462E+01
              0.419970141076895E+01
              0.492183446884069E+01
             -0.990197187945970E+00
              0.425269056702638E+01
             -0.411097622837201E+01
             -0.384302946040350E+00
             -0.760034916266986E+01
             -0.465763285885308E+01
              0.587874298186136E+01
             -0.125746615928253E+02
              0.371481825294658E+01
              0.217846871064499E+01
              0.119979451102436E+02
             -0.276799222553922E+01
              0.453773267715207E+01
             -0.176919656038727E+01
             -0.666536049369140E+01
             -0.976841678980576E+01
             -0.164757118688375E+01
             -0.126605274857709E+02
              0.182829700526510E+01
             -0.316194564040349E+01
              0.438554907354397E+01
              0.321100437648141E+01
             -0.371561583467865E+01
             -0.399785848881147E+01
              0.589385716611379E+01
             -0.778059228050253E+01
             -0.181934230974843E+01
             -0.233611372886215E+01
              0.331746717145837E+01
             -0.149370870123903E+00
              0.556455764553544E+00
             -0.237908191833127E+01
              0.753924090164214E+01
             -0.749711429938622E+01
              0.124764728745960E+01
              0.829309588413748E+01
             -0.468533506961225E+01
              0.419034458302189E+00
             -0.415361759250800E+00
             -0.946526785344228E+01
             -0.606229498517155E+01
             -0.629305896019524E+00
              0.403854264554510E+01
              0.446500544089429E+01
              0.909263208927051E+00
             -0.117468302395243E+01
              0.247797197484759E+01
             -0.595418964096136E+01
             -0.307251887199804E+00
             -0.740574119561974E+01
             -0.375196042996686E+01
              0.677747236584672E+01
             -0.423757980176958E+01
              0.933087668099541E+01
             -0.311026190920855E+01
              0.483643426398324E+01
              0.361214518588993E+01
             -0.843261339482785E+01
             -0.383821257633680E+01
              0.110854869202042E+01
             -0.536737162654166E+01
             -0.560752934536109E+01
             -0.119556562357901E+02
             -0.787440229908426E+01
             -0.694469643801182E+01
             -0.607882049496154E+01
              0.938519739096897E-01
              0.275167022696331E+01
              0.106653353798617E+01
              0.317956559773744E+01
             -0.811733791912493E+01
              0.177148841595972E+01
              0.369300793409452E+01
             -0.954868502883087E+01
             -0.843733529550839E+01
             -0.546830712238119E+01
             -0.384629935905685E+01
              0.228820023766716E+01
             -0.175659691091425E-01
             -0.589711632294364E+01
              0.446636322989102E+01
             -0.290620505045881E+01
              0.737086360913113E+01
             -0.120717116089243E+02
              0.842646775458707E+01
             -0.921063789382035E+00
             -0.606962718029436E+01
             -0.367237759108722E+01
             -0.106344986112473E+00
              0.618624034609268E+01
             -0.994881141871202E+01
             -0.174387481121305E+01
             -0.247726303240963E+01
              0.627808316637498E+01
              0.112474451425395E+02
             -0.137834627132738E+02
              0.128807611058554E+02
              0.576392066905126E+01
             -0.104877163639798E+02
             -0.469977426197669E+01
              0.107636892602770E+02
              0.822236047774291E+01
             -0.286844577831451E+01
             -0.901837004771352E+00
              0.211230885015778E+01
              0.102325453540970E+02
             -0.788953528974104E+01
              0.213722108756431E+01
             -0.812651697513338E+00
              0.423299780702126E+01
             -0.996713807907122E+01
             -0.573319322372983E+00
             -0.425734514618259E+01
              0.657663612100733E+01
              0.558564241637092E+01
             -0.122564865634465E+02
             -0.670224460883014E+01
             -0.313729738654638E+01
             -0.546065982426554E+01
             -0.180648766122538E+01
             -0.294375048350733E+01
              0.634244654773959E+01
              0.596375255729696E+01
             -0.674882245470840E+00
             -0.582302742299899E+01
             -0.118962050245961E+02
              0.666093240585515E+01
             -0.674054626992426E+01
             -0.469796009629282E+01
              0.102361944329201E+01
             -0.484032951930882E+01
             -0.563237316055317E+01
             -0.410924171507521E+01
             -0.657713806697436E+01
             -0.333611538929174E+01
             -0.681365876668260E+01
              0.793460521472377E+01
              0.866159338506782E+01
             -0.988992082024012E+00
             -0.316523462539440E+01
             -0.760228111832078E-01
              0.584757244592429E+01
             -0.121414702268017E+02
             -0.307852604233612E+01
              0.723053006659994E+01
              0.946426768160549E+01
             -0.213704460296357E+01
              0.154455314062294E+01
              0.731007549231705E+01
              0.229700027983791E+01
             -0.229195408622999E+00
             -0.546839515452334E+01
              0.258029581008404E+01
             -0.470510646886446E+01
             -0.198325980591614E+01
             -0.261655329671849E+01
             -0.227960047077662E+01
              0.296417179952911E+01
              0.112390704775445E+02
             -0.672856415218856E+00
              0.382865568996149E+00
             -0.127574165841612E+02
             -0.262934232008641E+01
             -0.504906698749958E+01
              0.311380054805802E+00
             -0.593915318007370E+01
              0.115805991829273E+02
              0.119236155251484E+02
              0.252971688413215E+01
             -0.280970683460748E+01
              0.216697719633221E+01
              0.340728849720182E+01
             -0.642706512845487E+01
             -0.114274733737112E+01
              0.227024268372685E+01
              0.181916424445341E+01
              0.725101568476597E+01
              0.577596712293803E+01
             -0.290913717924548E+01
              0.365273738440601E+01
             -0.136469811824903E+02
             -0.499219706559764E+00
              0.123264679157725E+02
              0.221772294436236E+01
             -0.350609634336791E-01
              0.410717501788947E+01
             -0.329891367140947E+01
              0.127271076269052E+02
             -0.236437016155455E+01
              0.114159998379011E+02
              0.524370631488083E+01
             -0.612273350878307E+01
              0.452586312460175E+01
             -0.400965347910151E+01
             -0.943069738557108E+01
             -0.981530900320074E+00
             -0.762614774304129E+01
             -0.754879926208392E+01
             -0.309617681968348E+00
              0.476314416217423E+01
             -0.134210676106315E+01
             -0.474740985925860E+01
              0.108926422834943E+01
             -0.953429780346035E+01
             -0.759209605245036E+00
             -0.120355035162308E+02
              0.751373156747367E+01
             -0.417173577279380E+00
             -0.683192888601225E+01
             -0.290666805714363E+01
              0.240693596256036E+01
             -0.479471213749045E+01
             -0.618613940770154E+01
              0.124130648642257E+02
             -0.354101605655882E+01
             -0.594648224913195E+01
              0.417133653386535E+01
             -0.241060716414793E+01
              0.724763961538607E+01
             -0.151593523254320E+00
              0.656295553556326E+00
              0.146161917790792E+02
             -0.197953732052309E+01
             -0.510980813155192E+01
             -0.585831255287781E+01
             -0.754025863289374E+01
             -0.493245392383795E+01
              0.383681462896679E+01
              0.368437452797527E+01
              0.365461551318139E+01
              0.102438382685348E+02
              0.314771694222486E+00
              0.284082051813444E+01
             -0.876209766458569E+01
              0.113883915130849E+00
             -0.298154488428555E+01
             -0.404739734263325E+01
             -0.935852910020003E-01
              0.466198129679321E+01
              0.532480901449696E+01
             -0.229698841324798E+00
              0.132213420029129E+01
              0.417323484594467E+01
              0.525007616208330E+01
             -0.293344549678825E+01
             -0.145516297438070E+01
              0.145105842817213E+00
             -0.357487754907812E+01
             -0.106574998878884E+01
             -0.458345472219438E+01
              0.105683179066248E+02
              0.868263957093785E+01
             -0.239157672807401E+01
              0.207686574282155E+01
             -0.627431245071004E+00
             -0.382671237119913E+01
              0.486468611655349E+01
             -0.125653017806738E+01
              0.484954609304614E+01
             -0.701159613724511E+01
              0.244764399210332E+01
             -0.132896660303041E+01
             -0.747129880867234E+01
             -0.348587986661624E+01
              0.342351625819562E+01
             -0.132357974966553E+02
              0.531488502978380E+01
              0.655166389724019E+01
             -0.120134507208903E+01
             -0.794148311862966E+00
             -0.361753826296500E+00
              0.341263269638051E+01
             -0.463867265967563E+01
              0.480622380195196E+01
              0.421653111101900E+01
             -0.138621373128203E+02
             -0.468971422226977E+01
              0.332871823992259E+01
             -0.150177108188510E+01
              0.609349542785190E+01
             -0.856990746871457E+01
             -0.751547191538165E+00
             -0.555024581994273E+01
             -0.177985236765993E+02
              0.108459761007442E+02
             -0.833169466607944E+01
             -0.881253100060376E+01
              0.116210419815815E+01
              0.179583285252646E+02
              0.490173955181305E+00
             -0.398331247031260E+01
             -0.137527827725599E+00
             -0.632830639047523E+00
             -0.121958794707935E+02
             -0.816516268570522E+01
              0.116815355931179E+02
             -0.141887736101969E+01
             -0.519806530219759E+01
              0.719955163692055E+01
             -0.466128281369312E+01
              0.502349795283047E+01
              0.717392372715668E+01
             -0.791209496275513E+01
             -0.379895622399951E+01
             -0.437540465727275E+01
             -0.215001766778602E+01
             -0.297087525303477E+01
             -0.191020783274068E+01
              0.223014825826665E+01
             -0.476421274994306E+01
              0.408091079028325E+01
              0.806202105339891E+01
             -0.145939058479707E+01
             -0.258147813074938E+01
              0.201801716554424E+01
              0.763426836422205E+01
              0.718491095036643E+01
              0.897741739412002E+00
             -0.948892426679237E+00
             -0.117053859967383E+01
             -0.731771861171955E+01
              0.560836053866651E+01
             -0.352662514340203E+01
              0.278320516515950E+01
             -0.213098453965020E+01
              0.386119599511999E+01
              0.230552742792399E+01
             -0.113566795907974E+02
             -0.389597242215116E+01
             -0.108876552240989E+02
             -0.498930161120977E+01
              0.735545201942518E+00
             -0.241130719123421E+01
              0.449858153033761E+01
             -0.392128987977035E+01
              0.320362242241995E+00
              0.117175157815355E+01
              0.102001990536680E+02
              0.530023174751185E+01
             -0.404478200509244E+01
             -0.201319248436469E+00
              0.196470500981971E+01
              0.520916985811963E+01
              0.329357330425282E-01
              0.768274509589826E+01
              0.388914802441275E+01
              0.124171052172646E+02
              0.642322968131122E+00
              0.933059111938947E+01
             -0.353331981942841E+01
             -0.543296951866334E+01
              0.895299443221020E+00
              0.108212487346010E+01
              0.364477421415105E+01
             -0.192816284042830E+01
             -0.187559336636286E+01
              0.326822529371513E+01
             -0.663588225049084E+01
             -0.767047297737487E+01
              0.106410341611644E+02
             -0.920648184154899E+00
             -0.577266937423230E+01
             -0.595134350394325E+00
             -0.200303068831087E+01
              0.540698678093584E+01
              0.492001126938764E+01
             -0.280125459281975E+01
             -0.131163953374575E+00
             -0.379088644317307E+01
             -0.487689525010286E+01
             -0.353345759967155E+01
             -0.133553925846952E+02
             -0.235739574234714E+00
             -0.934924771431254E+01
             -0.788629856432063E+01
             -0.561507403297981E+01
              0.266008608896659E+01
             -0.537643226678389E+01
              0.300324816653160E+01
             -0.856769415244639E+01
              0.101036814632685E+00
             -0.566835960385146E+01
              0.783869489998185E+00
              0.122626020713743E+01
              0.463418290560739E+01
             -0.289653266559426E+01
             -0.263940400398921E+01
              0.408583918825305E+01
              0.859840829756618E+01
              0.440179518288992E+01
              0.125512181551191E+01
             -0.100341660400260E+02
             -0.209154974821748E+01
             -0.407596274784525E+01
             -0.867621648523801E+01
              0.614455332371450E+01
             -0.484905355908805E+01
             -0.773155677744949E+00
             -0.375412239495146E+01
             -0.140364190347644E+02
              0.756398783478942E+01
             -0.262110663371729E+01
              0.561637663480936E+01
             -0.101596147966587E+02
              0.919432586065750E+01
              0.579603574654399E+00
             -0.397373627621232E+01
              0.926400819022810E+00
             -0.310037764058136E+01
             -0.947004502194395E+01
              0.238265067580083E+01
              0.471325903371845E+01
              0.155361886207402E+00
             -0.479700803451152E+01
             -0.197901659766387E+01
              0.270088483443485E+01
              0.457417118635268E+01
              0.881964895115322E+01
              0.346827207267658E+01
             -0.312368954866418E+01
              0.129569054115343E+02
              0.333028652729636E+01
              0.607796166206568E+01
             -0.218753264234002E+01
              0.400666547231260E+01
              0.278559536120390E+01
             -0.885483940825614E+01
             -0.288903445698704E+01
             -0.547086528329000E+01
             -0.508885281067254E+01
             -0.142879208872579E+01
             -0.176843156982996E+01
             -0.586570078327139E+01
             -0.158499338621297E+02
             -0.387542158019337E+01
              0.219073190577510E+01
              0.807212508773972E+00
              0.161944775866908E+01
              0.609373940911932E+01
              0.200017787851912E+01
              0.427308290869417E+01
             -0.617624268429696E+01
              0.634275966661222E+01
             -0.595261646990659E+01
             -0.992329297551763E+01
              0.246791558205943E+01
             -0.551173138163824E+01
             -0.578332058228184E+01
             -0.222202717587178E+02
             -0.138547527004546E+01
              0.114534020137538E+02
              0.611284312254046E+01
             -0.161160427015867E+01
             -0.140054151024007E+01
              0.500470349889047E+01
              0.905313732208192E+01
             -0.572185700470513E+01
             -0.145732214258422E+01
             -0.467439024789626E+01
             -0.488755474679780E+01
             -0.448412833378186E+01
              0.191046969634477E+01
              0.991821588525690E+01
             -0.936126911850229E+01
             -0.752061517222097E+01
              0.312855221575930E+00
             -0.160630618106657E+01
             -0.254137316977597E+01
             -0.126069264239876E+02
              0.823653366346109E+01
              0.322119881549516E+01
              0.892340405157254E+00
              0.700368733916324E+01
             -0.432666632730247E+01
              0.456589633243203E+01
              0.390007164385876E+01
              0.672843488564894E+00
             -0.112000189935879E+01
              0.155149179749138E+01
             -0.209770497208434E+01
              0.660374210771486E+01
             -0.581399057849608E+01
              0.593428601810863E+01
              0.142473077292929E+01
              0.209585946609562E+01
              0.302070521437827E+01
             -0.114848571955688E+02
              0.114009796450252E+01
             -0.930188764283646E+01
             -0.691604203710635E+01
             -0.682533242722209E+01
             -0.682846083449033E+01
              0.348219462347373E+00
              0.226310748373495E+01
              0.671960291340181E+01
              0.119031506934746E+01
              0.203379506757123E+01
             -0.984959771234055E+01
             -0.380280931432575E+01
              0.468187423833095E+01
              0.113935963939404E-01
             -0.148856895460256E+00
             -0.128062005076173E+01
              0.496216564133870E+01
             -0.128325795973533E+02
              0.168325667701601E+01
              0.320788206313321E+01
              0.577582049130422E+01
              0.522132512572825E+01
             -0.792087131851728E+01
              0.182000931354050E+01
              0.886280856840919E+00
              0.101202634899627E+01
              0.353579951403177E+00
             -0.308887852415035E+01
             -0.529489749477944E+01
              0.230713907183227E+01
              0.835774997770949E+01
             -0.915509393931387E+00
              0.162683207608313E+01
              0.179966704999945E+01
             -0.397975484005676E+01
             -0.392307966865654E+01
             -0.165947461100448E+02
             -0.561387040678165E+01
             -0.771625685854596E+01
             -0.122947273371676E+01
             -0.928747230883448E+01
              0.106916797890372E+02
             -0.453822869811052E+01
             -0.748055471541861E+01
             -0.220884503546181E+02
              0.940401216855597E+01
              0.199289752035249E+01
              0.312542715843190E+00
             -0.854258562858691E+01
              0.101084882061720E+01
             -0.233097785224048E+01
             -0.446486262831662E+01
              0.970192080811366E+00
              0.453853622406637E+01
              0.999421033033649E+00
             -0.251548348579526E+01
              0.604789480971135E-01
              0.205610929277618E+00
              0.196412960917749E+01
             -0.927575501299358E+01
              0.999395988018885E+01
             -0.570895992340016E+01
             -0.375756234513277E+01
             -0.648077251914309E+01
             -0.144385549778816E+02
              0.830756021553061E+00
             -0.714488592241680E+01
             -0.299987798541019E+01
              0.459661589431008E+01
             -0.336755344699166E+01
             -0.774901942549747E+00
             -0.157325118734818E+01
             -0.342897503018534E+01
              0.215211820894034E+00
              0.744762675936811E+01
             -0.744414302236243E+01
              0.137864011663326E+02
             -0.313355597593583E+01
              0.481107434365962E+01
             -0.161813779691783E+01
              0.183660594572754E+01
             -0.161685657150011E+01
              0.632976115813644E+01
              0.883431561906673E+01
              0.253121281963654E+01
              0.711779924045109E+01
             -0.462791570584897E+01
             -0.669733371294723E+00
             -0.350468707904244E+01
              0.911525311872953E+01
              0.794974048982203E+01
              0.585528722193341E+01
             -0.210864123188371E+01
             -0.373414577882854E+01
              0.340620147157450E+01
             -0.377683576623756E+01
             -0.207547383441845E+01
             -0.938606119531418E+00
             -0.448120006264034E+01
              0.701131594212421E+01
             -0.126460278046458E+01
              0.499961363987219E+01
              0.246473081697336E+01
              0.234108673503336E+01
             -0.471778961725081E+01
              0.410844254952414E+01
             -0.202950594727810E+01
             -0.144362703500177E+01
             -0.230701858445009E+00
             -0.715472768442962E+01
              0.109067209262362E+02
             -0.384678263178458E+01
              0.694872316314559E-01
              0.310372505844778E+01
              0.280820160786930E+01
              0.104562894283656E+02
             -0.287337387879679E+01
              0.106549777561429E+02
              0.955433833514075E+01
             -0.135435260608484E+02
              0.966276187480425E+00
             -0.259016252769835E+01
              0.163182324194542E+01
              0.930965638972257E+00
              0.241543837579773E+01
              0.874130591434281E+01
              0.130928519591781E+02
             -0.106927454157279E+02
              0.107873097968488E+02
             -0.134368795546404E+02
             -0.112846236279244E+02
             -0.183725362918291E+01
              0.181993782597381E+00
              0.105911774469244E+02
              0.512344213446138E+01
             -0.219266897873647E+01
             -0.123157873567304E+02
              0.938591095596510E+01
             -0.617712748767295E+01
              0.726236341540840E-01
             -0.700750361180139E+00
              0.178848831931579E+02
             -0.345019284830904E+01
             -0.147200496492155E+02
              0.422040203965636E+01
             -0.223356835178441E+02
              0.180681539367706E+01
             -0.519788306505563E+01
             -0.239930093408935E+01
             -0.354916950620122E+01
             -0.804827658184821E+01
              0.525345550719937E+01
             -0.485896531965334E+01
             -0.140212805643270E+01
             -0.108267773505900E+02
             -0.619614455390540E+00
             -0.710239370380248E+01
             -0.105097752286093E+02
             -0.160986950113057E+02
              0.152990994362779E+01
             -0.469021750987166E+01
              0.382781686684496E+00
             -0.168903831870621E+01
             -0.115181971187603E+02
             -0.877782142231237E+01
             -0.794459962266882E+01
             -0.767597614465694E+01
              0.744517568473119E+01
              0.112631656840515E+01
             -0.656605488240120E+01
             -0.311632884577213E+01
             -0.365065596605919E+01
              0.545647528414877E+01
             -0.435329371491740E+01
             -0.119328953957361E+01
             -0.379855089340830E+01
             -0.535895102411988E+01
             -0.544432487558306E+01
              0.550947722742722E+01
             -0.190738560142007E+01
             -0.125418612203379E+02
              0.109428287941129E+02
              0.633677471676624E+01
              0.640167496577142E+00
             -0.108392505637025E+02
             -0.104935317183537E+02
              0.132677794622916E+01
              0.418810145864192E+00
             -0.469302926874647E+01
             -0.651099359787035E+01
              0.476673768985046E+01
             -0.792368933447818E+00
[...]
              0.267792077679015E+01
              0.120894629597625E+01
              0.630652178464775E+00
             -0.848291844596744E+01
              0.123236915719773E+02
              0.748081648828702E+01
              0.952637314631609E+00
             -0.672063573303392E+01
              0.303913570614347E+01
             -0.324628710911234E+01
             -0.166600465730916E+01
             -0.317449500021297E+01
              0.264610873047494E+01
             -0.182267156166094E+01
             -0.262656730599031E+01
              0.301250591628154E+01
              0.332725284726547E+01
             -0.121918332101141E+02
              0.262299555121361E+01
              0.911672743075889E+01
              0.578264677632759E+01
             -0.189721026584972E+01
              0.226454456178375E+00
             -0.513492226718065E+01
              0.798283154650217E+01
              0.179652068178889E+01
             -0.789652442692628E+00
             -0.804166701829743E+00
              0.149967063017937E+02
             -0.427831314174831E+00
              0.383859474600659E+01
              0.100796747024683E+02
              0.135891027884398E+02
              0.837602115036737E+01
              0.582804383574246E+01
             -0.856866030667782E+01
             -0.634375157422367E+01
              0.481142016036331E+01
              0.359319987810466E+00
              0.428927765426623E+01
              0.198591172287955E+01
              0.876340618948370E+01
             -0.109792646413146E+02
             -0.674090660830873E+01
             -0.140532890594569E+01
             -0.118389858261163E+02
              0.236514315206691E+01
              0.577201552097891E+01
              0.988023892765668E+00
             -0.302737019215877E+01
              0.317412445554408E+01
              0.191173436668400E+02
              0.414132114010838E+01
              0.223837963941864E+01
             -0.667546571183005E+01
             -0.853524845865520E+01
             -0.225116833056070E+01
              0.406970427587584E+01
             -0.799195912028708E+00
              0.333743116798364E+01
              0.484035398687772E+01
             -0.863799267847620E+01
              0.364707424619704E+01
              0.586941940800220E+01
              0.798023203322477E+01
             -0.117292259758321E+01
              0.250600841273794E+00
             -0.111340159944367E+01
             -0.651766958193390E+01
             -0.100192627057304E+02
              0.108319284022213E+02
             -0.111965317169970E+01
             -0.772885938840433E+01
              0.645553429806448E+00
             -0.391055025555485E+01
              0.122784704620916E+02
             -0.304536958895162E+01
             -0.507288374021478E+01
              0.495557109843439E+01
             -0.196517679855788E+01
              0.619600887958187E+01
             -0.136565514059413E+00
              0.133456585649893E+02
              0.679147426895537E+01
              0.789089927048219E+00
             -0.514942112800171E+01
              0.371266098746391E+01
             -0.753033165212706E+01
             -0.916993207377711E+00
              0.888643423689568E+01
             -0.360158526033362E+01
             -0.611361111838242E+01
             -0.296773248950530E+01
              0.725851348419688E+01
              0.169736592810031E+01
             -0.115858703906789E+02
              0.475118680105872E+01
              0.155587406824840E+01
              0.131311184383749E+01
             -0.689980239748454E+01
              0.971610851548633E+00
              0.480926240865377E+01
              0.687983116436083E+01
              0.878616316824653E+01
              0.446414478327039E+01
              0.797210615247920E+00
             -0.737317142376071E+01
             -0.614263198363792E+01
             -0.962869171132414E+01
             -0.147276818648794E+01
              0.478555120348403E+01
             -0.407734313958017E+00
              0.744302284814584E+01
             -0.440187144954879E+01
              0.231599763934384E+01
             -0.268381155559372E+01
             -0.378815508121549E+01
              0.811710272048318E+01
              0.915989815538190E+00
              0.843232996944089E+01
              0.786203697726535E+00
              0.313523353867526E+01
             -0.220561679311869E+01
              0.831055872129016E+01
             -0.190805665702853E+01
             -0.727114545683005E-01
             -0.109049724544484E+02
             -0.129942158382632E+01
              0.989304227560928E+01
              0.936403666176638E+01
              0.320671922497005E+01
             -0.176510631151073E+01
              0.454763889477256E+00
             -0.290111761068149E+01
             -0.166515232922349E+01
              0.123005726870773E+02
              0.694100980983876E+00
             -0.348969348452100E+01
             -0.150622290521793E+02
             -0.671578297703318E+01
             -0.524726457572618E+01
             -0.869524380685138E+01
             -0.820731166126544E+01
             -0.994403505977023E+01
             -0.625579589117569E+01
             -0.457748358766030E+01
             -0.632578679814610E+01
              0.632581141922866E+01
             -0.313826334326157E+01
             -0.129239122609599E+02
              0.599938963949424E+01
             -0.447141028790308E+01
             -0.109246655542347E+02
              0.138899294287281E+02
             -0.329823304327590E+01
              0.251523002499024E+01
              0.575066846121751E+01
              0.114849325534389E+01
              0.340427658427996E+01
              0.207733125000281E+00
              0.786600982406611E-01
             -0.186852138384994E+01
             -0.100863141329378E+02
              0.159225703913795E+01
             -0.173321939775940E+02
              0.945457202225379E+01
             -0.569952566452046E+01
             -0.219373795910341E+01
             -0.250581959311150E+01
              0.248712620253926E+01
             -0.265395526132692E+01
              0.410403205240388E+01
             -0.769839856243929E+01
              0.534810793551451E+01
              0.568826904853691E+01
              0.178021177498533E+01
              0.131444934464159E+01
              0.289824933625225E+01
              0.102207533838713E+01
              0.445069672961323E+01
             -0.909228814138004E+00
             -0.932985054870512E+01
              0.134795933027674E+01
             -0.420564521923438E+01
             -0.264031915084395E+00
              0.735186489448169E+01
             -0.114382894088174E+02
              0.231933571417784E+00
              0.320604104011842E+00
              0.131111795305554E+01
              0.431561967997524E+01
             -0.188883398201208E+01
              0.116876064343855E+02
              0.574972321221775E+01
             -0.218919253084915E+01
             -0.139574350572292E+01
              0.609129586348370E+00
              0.109937139401837E+02
             -0.717312883066307E+01
             -0.143357243315018E+02
              0.416902432601244E+01
             -0.125351536650527E+01
             -0.208891252075798E+01
              0.243355810898653E+01
              0.106579509593515E+02
              0.602146914601781E+01
             -0.245619226892921E+01
             -0.730764562482572E+01
             -0.141418937931283E+01
              0.394936863103874E+01
             -0.217304580630114E+01
             -0.105283038399570E+02
             -0.945213164457563E+00
             -0.131025465603435E+02
             -0.678097691630734E+01
              0.116497420499885E+02
             -0.709856200649197E+01
             -0.957463073034587E+01
             -0.757331651923742E+01
             -0.531924253923538E+01
              0.475599873346676E+01
              0.116677943824851E+02
             -0.104639553122280E+01
              0.376984452748939E+01
             -0.256734049013991E+01
             -0.933668287235189E+01
              0.728036496546990E+01
             -0.654969490424580E+01
              0.395591487112115E+01
              0.434005669665923E+01
             -0.179982896154847E+01
              0.549059113214464E+01
              0.561765124630630E+01
              0.158293602403362E+02
             -0.188389728784536E+01
             -0.713883767480725E+01
             -0.913629269989967E+01
             -0.217262308616458E+01
             -0.497852462786370E+01
              0.137006111378694E+02
             -0.649993021014723E+01
              0.122727376063565E+01
              0.703556009275125E+00
             -0.306302818365601E+01
             -0.115245083857296E+02
             -0.992004635590220E+00
              0.138945909323810E+02
              0.232092070173598E+01
              0.108844782360585E+01
             -0.758808490882776E+01
             -0.763616156286346E+01
             -0.181090690374133E+01
              0.648145601722229E+01
             -0.356906073564338E+01
              0.143421095861019E+02
             -0.627061617784116E+01
              0.235764360745691E+01
             -0.249550202561581E+01
             -0.891266619166505E+01
              0.722239740979667E+00
             -0.766689151796638E+01
             -0.103268524592119E+02
              0.111951730785123E+01
              0.137593925677930E+00
              0.678305049017443E+01
              0.336250932000304E+01
             -0.484831432031176E+01
              0.321607059134766E+01
             -0.117610518431661E+02
             -0.689357848653273E+01
              0.130078706813352E+02
              0.871888536087855E+00
             -0.142393766884645E+01
             -0.385335276955358E+01
             -0.357834170778659E-01
             -0.132893422805991E+01
              0.124289849159310E+02
              0.578245292983008E+01
             -0.159710901984876E+01
             -0.660719906246342E+00
             -0.558661781006270E+01
             -0.215402946382122E+01
             -0.892595119281386E+01
              0.712091767199608E+01
              0.951431479542375E+00
              0.148681297414630E+01
              0.226820841378096E+01
             -0.144671220218304E+01
             -0.289194035710003E+01
              0.368822669305426E+00
             -0.148918561108419E+02
             -0.200590428643281E+01
             -0.115730276745989E+01
             -0.987391938579716E+00
              0.718557890818615E+01
              0.874807687934345E+01
              0.233712133367605E+01
             -0.130666606740944E+02
              0.895667642861459E+01
             -0.334203231998885E+01
             -0.511397978731602E+01
             -0.120425233153066E+02
             -0.451941684113744E+01
              0.825262697317658E+01
              0.437573909511360E+01
              0.214668512289391E+01
              0.451968818986501E+01
             -0.773406088273952E+01
             -0.633824942725641E+01
              0.845408979741028E+01
              0.569974995442752E+01
              0.678858160122781E+01
              0.567771889088796E+00
              0.136176135098248E+01
              0.747729682958902E+01
              0.137529319696817E+02
             -0.315209827260674E+01
              0.520544426991292E+01
             -0.293718820895651E+01
             -0.600028033730791E+01
             -0.464702525687630E+01
             -0.431080759849448E+01
             -0.186346882467293E+01
             -0.679364559098602E+01
             -0.296578228576935E+01
             -0.184190848553530E+02
              0.470208704525056E+01
              0.366718617520761E+01
             -0.346233112732536E+00
             -0.515599586506023E+01
             -0.271968308750447E+01
             -0.752961892906665E+01
              0.134184113707872E+01
              0.111865533338969E+02
             -0.275917228990100E+01
             -0.257916478000758E+01
              0.258745214288601E+01
             -0.698796271478670E+01
              0.122754009904972E+02
              0.234253240225525E+01
              0.152691710402527E+01
              0.725535711442340E+01
             -0.393741923148568E+00
              0.803513489584793E+01
              0.247331397596811E+01
             -0.870580826775981E+00
              0.174256653442603E+01
             -0.100084711384056E+01
              0.987380958473859E+01
              0.116697065373533E+01
              0.257875059383230E+01
             -0.136016209423742E+01
              0.153145486385637E+01
             -0.130113414992957E+02
             -0.496992655336234E+01
             -0.663366366507340E+01
              0.722408092640765E+01
             -0.471291557746991E+01
             -0.829399079485903E+01
              0.799857923381896E+01
             -0.199636923742220E+01
              0.608163103514413E+01
             -0.124716209472001E+02
              0.308607705756895E+01
              0.711992980228615E+00
              0.746626437596120E+00
             -0.155066049716684E+01
             -0.861326850919482E+00
              0.694822935041100E+01
              0.372193202704786E+00
             -0.692596213146739E+01
             -0.293830442242780E+01
              0.299295761057265E+01
             -0.164452181327028E+02
             -0.126000125839771E+02
              0.279465419733910E+00
              0.190894234926316E+01
             -0.677848706247107E+01
             -0.172709865155120E+00
              0.149001217817290E+02
              0.428508343409844E+01
             -0.780699135533696E+01
              0.103501458965394E+01
             -0.130562189143052E+01
              0.181977143897365E+01
             -0.482295585126758E+01
              0.294206285643611E+01
              0.340420178261394E+01
             -0.943806309466531E+00
              0.154323848828312E+02
             -0.115870093491928E+01
             -0.435703611541655E+01
              0.354125801095707E+01
              0.619487262193921E+01
             -0.485910576363878E+01
             -0.138754328576767E+00
              0.137016587683686E+02
             -0.366624325954092E+00
              0.739325945461055E+01
              0.227198989124401E+01
             -0.112924178331494E+01
             -0.266424305301017E+01
              0.703452269956030E+01
             -0.790239272783511E+01
             -0.458775720168124E+00
             -0.263590297870222E+01
             -0.582694342750393E+01
              0.174770260808582E+01
              0.332453644841173E+01
              0.342357725716859E+00
             -0.265014449299841E+00
             -0.548887525187001E+01
              0.230847885167730E+01
             -0.484154681454786E+00
             -0.318036169381174E+01
             -0.294356230757880E+01
              0.276612128395781E+01
             -0.408261894669522E+00
             -0.528715064109320E+01
             -0.148803081011380E+02
              0.754867006602449E+00
              0.274382431073575E+01
             -0.621127137066829E+01
             -0.336290381847458E+01
              0.114011242475495E+02
              0.139082917267280E+01
              0.542275763490181E+01
              0.106624175270737E+01
              0.505409376864527E+01
              0.438178472726690E+00
             -0.547933470512653E+01
             -0.100252247272843E+01
              0.957699485745742E+00
              0.396100560509165E+01
              0.107354202805095E+02
              0.688852887342946E+01
              0.226849938090133E+00
              0.169871332623309E+01
              0.853685275427572E+01
              0.367177888591392E+01
             -0.101596504888496E+02
             -0.390612191722252E+01
              0.200965179333181E+01
              0.122749273385253E+01
              0.346241446309812E+01
             -0.737618813252743E+01
              0.860979231234177E+00
              0.551922293907132E+01
              0.680046901186465E+01
             -0.590448842924772E+01
             -0.204837602643472E+00
             -0.266311689366965E+00
             -0.262056188185682E+01
             -0.392030836324850E+01
             -0.201622927701482E+01
             -0.111120004344525E+01
              0.142215241691716E+01
              0.583347156936502E+01
             -0.429765701921089E+01
              0.114614479223629E+02
              0.457298012341741E+01
              0.342890912834378E+01
              0.515959247127989E+01
              0.389460669072716E+01
              0.470379199693048E+01
              0.768812109760403E+01
             -0.652008001880732E+01
              0.882517569467795E+01
             -0.157369113709812E+02
              0.437502587378476E+01
             -0.146813963439510E+02
              0.113007531885731E+02
              0.106095074060594E+02
             -0.122684685767943E+01
             -0.673030468312427E+01
             -0.603957524091312E+01
             -0.796661112686704E+01
             -0.904877029778449E+01
              0.759523105157408E+01
              0.590957885115065E+01
              0.333488928262148E+01
              0.421598257601603E+01
              0.573293980082929E+01
             -0.562748789181337E+01
             -0.218399730346332E+01
              0.780552760894621E+01
             -0.172099401478094E+01
              0.708845182375812E+01
              0.104475238549487E+02
             -0.481162356774890E+00
             -0.103660649444505E+02
              0.507043879303538E+00
              0.229281528646633E+00
             -0.131027674609985E+01
              0.259695428653544E+00
             -0.921178347036297E+01
             -0.185810375636996E+01
              0.169309029863342E+01
              0.165045768851814E+01
              0.676506893483406E+01
             -0.550944436872485E+01
              0.812340263745700E+01
             -0.550125906946808E+01
              0.343059031388113E+01
              0.580860756544835E+01
 BEEF xc energy contributions
           1 :   -100.016352315727     
           2 :    83.2647111932267     
           3 :   -60.4103443142097     
           4 :    40.2292329644943     
           5 :   -25.5165630684203     
           6 :    15.8871294210302     
           7 :   -9.97945524632192     
           8 :    6.50302618919992     
           9 :   -4.40765069850533     
          10 :    2.95976040316733     
          11 :   -1.78679495457720     
          12 :   0.794572701313873     
          13 :   4.980326236547433E-002
          14 :  -0.793193684519660     
          15 :    1.38088823436439     
          16 :   -1.69879746369571     
          17 :    1.72341223261722     
          18 :   -1.52293873070420     
          19 :    1.21860833316840     
          20 :  -0.930217887698140     
          21 :   0.733932536954045     
          22 :  -0.658973647856890     
          23 :   0.673562017084841     
          24 :  -0.707701728923270     
          25 :   0.690405110277841     
          26 :  -0.594306601882304     
          27 :   0.447337536987859     
          28 :  -0.304345032402767     
          29 :   0.220049869053116     
          30 :  -0.217600472246929     
          31 :   -12.5782345237581     
          32 :   -7.88390938743077     
    POTLOK:  cpu time   45.9021: real time   45.9597


--------------------------------------------------------------------------------------------------------


 stress matrix after NEB project (eV)
     -0.07983      0.00000      0.00000
      0.00000     -0.21185      0.00000
      0.00000      0.00000     -0.22612
  FORCES: max atom, RMS     0.254152    0.199268
  FORCE total and by dimension    0.345142    0.254152
  Stress total and by dimension    0.319973    0.226119
