<?xml version="1.0" encoding="ISO-8859-1"?>
<modeling>
 <generator>
  <i name="program" type="string">vasp </i>
  <i name="version" type="string">5.4.4.18Apr17-6-g9f103f2a35  </i>
  <i name="subversion" type="string">(build Oct 12 2018 15:21:48) complex            parallel </i>
  <i name="platform" type="string">LinuxIFC </i>
  <i name="date" type="string">2019 08 02 </i>
  <i name="time" type="string">11:26:55 </i>
 </generator>
 <incar>
  <i type="int" name="ISTART">     1</i>
  <i type="string" name="PREC">accurate</i>
  <i type="string" name="ALGO"> Normal</i>
  <i type="int" name="NELM">   350</i>
  <i type="int" name="IBRION">     2</i>
  <i name="EDIFF">      0.00010000</i>
  <i name="EDIFFG">     -0.02500000</i>
  <i type="int" name="NSW">   200</i>
  <i name="ENCUT">    500.00000000</i>
  <i type="int" name="ISMEAR">    -1</i>
  <i name="SIGMA">      0.10000000</i>
  <i type="logical" name="LBEEFENS"> T  </i>
  <v type="int" name="KPOINT_BSE">    -1     0     0     0</v>
  <i type="int" name="NELM">   350</i>
  <i type="string" name="GGA"> BF</i>
  <i type="logical" name="LUSE_VDW"> T  </i>
  <i name="Zab_VDW">     -1.88670000</i>
  <i type="logical" name="LDIPOL"> F  </i>
 </incar>
 <structure name="primitive_cell" >
  <crystal>
   <varray name="basis" >
    <v>      14.00000000       0.00000000       0.00000000 </v>
    <v>       0.00000000      15.52647800       0.00000000 </v>
    <v>       0.00000000       0.00000000      14.59630900 </v>
   </varray>
   <i name="volume">   3172.80978798 </i>
   <varray name="rec_basis" >
    <v>       0.07142857       0.00000000       0.00000000 </v>
    <v>       0.00000000       0.06440611       0.00000000 </v>
    <v>       0.00000000       0.00000000       0.06851047 </v>
   </varray>
  </crystal>
  <varray name="positions" >
   <v>      -0.50000000      -0.50000000      -0.47957329 </v>
   <v>      -0.50000000      -0.45084275       0.47957329 </v>
   <v>      -0.50000000       0.45084275       0.47957329 </v>
  </varray>
 </structure>
 <varray name="primitive_index" >
  <v type="int" >        1 </v>
  <v type="int" >        2 </v>
  <v type="int" >        3 </v>
 </varray>
 <kpoints>
  <generation param="Monkhorst-Pack">
   <v type="int" name="divisions">       1        1        1 </v>
   <v name="usershift">      0.00000000       0.00000000       0.00000000 </v>
   <v name="genvec1">      1.00000000       0.00000000       0.00000000 </v>
   <v name="genvec2">      0.00000000       1.00000000       0.00000000 </v>
   <v name="genvec3">      0.00000000       0.00000000       1.00000000 </v>
   <v name="shift">      0.00000000       0.00000000       0.00000000 </v>
  </generation>
  <varray name="kpointlist" >
   <v>       0.00000000       0.00000000       0.00000000 </v>
  </varray>
  <varray name="weights" >
   <v>       1.00000000 </v>
  </varray>
 </kpoints>
 <parameters>
  <separator name="general" >
   <i type="string" name="SYSTEM">unknown system</i>
   <i type="logical" name="LCOMPAT"> F  </i>
  </separator>
  <separator name="electronic" >
   <i type="string" name="PREC">accura</i>
   <i name="ENMAX">    500.00000000</i>
   <i name="ENAUG">    605.39200000</i>
   <i name="EDIFF">      0.00010000</i>
   <i type="int" name="IALGO">    38</i>
   <i type="int" name="IWAVPR">    11</i>
   <i type="int" name="NBANDS">     8</i>
   <i name="NELECT">      8.00000000</i>
   <i type="int" name="TURBO">     0</i>
   <i type="int" name="IRESTART">     0</i>
   <i type="int" name="NREBOOT">     0</i>
   <i type="int" name="NMIN">     0</i>
   <i name="EREF">      0.00000000</i>
   <separator name="electronic smearing" >
    <i type="int" name="ISMEAR">    -1</i>
    <i name="SIGMA">      0.10000000</i>
    <i name="KSPACING">      0.50000000</i>
    <i type="logical" name="KGAMMA"> T  </i>
   </separator>
   <separator name="electronic projectors" >
    <i type="logical" name="LREAL"> F  </i>
    <v name="ROPT">      0.00000000      0.00000000</v>
    <i type="int" name="LMAXPAW">  -100</i>
    <i type="int" name="LMAXMIX">     2</i>
    <i type="logical" name="NLSPLINE"> F  </i>
   </separator>
   <separator name="electronic startup" >
    <i type="int" name="ISTART">     1</i>
    <i type="int" name="ICHARG">     0</i>
    <i type="int" name="INIWAV">     1</i>
   </separator>
   <separator name="electronic spin" >
    <i type="int" name="ISPIN">     1</i>
    <i type="logical" name="LNONCOLLINEAR"> F  </i>
    <v name="MAGMOM">      1.00000000      1.00000000      1.00000000</v>
    <i name="NUPDOWN">     -1.00000000</i>
    <i type="logical" name="LSORBIT"> F  </i>
    <v name="SAXIS">      0.00000000      0.00000000      1.00000000</v>
    <i type="logical" name="LSPIRAL"> F  </i>
    <v name="QSPIRAL">      0.00000000      0.00000000      0.00000000</v>
    <i type="logical" name="LZEROZ"> F  </i>
   </separator>
   <separator name="electronic exchange-correlation" >
    <i type="logical" name="LASPH"> F  </i>
    <i type="logical" name="LMETAGGA"> F  </i>
   </separator>
   <separator name="electronic convergence" >
    <i type="int" name="NELM">   350</i>
    <i type="int" name="NELMDL">     0</i>
    <i type="int" name="NELMIN">     2</i>
    <i name="ENINI">    500.00000000</i>
    <separator name="electronic convergence detail" >
     <i type="logical" name="LDIAG"> T  </i>
     <i type="logical" name="LSUBROT"> F  </i>
     <i name="WEIMIN">      0.00100000</i>
     <i name="EBREAK">      0.00000313</i>
     <i name="DEPER">      0.30000000</i>
     <i type="int" name="NRMM">     4</i>
     <i name="TIME">      0.40000000</i>
    </separator>
   </separator>
   <separator name="electronic mixer" >
    <i name="AMIX">      0.40000000</i>
    <i name="BMIX">      1.00000000</i>
    <i name="AMIN">      0.10000000</i>
    <i name="AMIX_MAG">      1.60000000</i>
    <i name="BMIX_MAG">      1.00000000</i>
    <separator name="electronic mixer details" >
     <i type="int" name="IMIX">     4</i>
     <i type="logical" name="MIXFIRST"> F  </i>
     <i type="int" name="MAXMIX">   -45</i>
     <i name="WC">    100.00000000</i>
     <i type="int" name="INIMIX">     1</i>
     <i type="int" name="MIXPRE">     1</i>
     <i type="int" name="MREMOVE">     5</i>
    </separator>
   </separator>
   <separator name="electronic dipolcorrection" >
    <i type="logical" name="LDIPOL"> F  </i>
    <i type="logical" name="LMONO"> F  </i>
    <i type="int" name="IDIPOL">     0</i>
    <i name="EPSILON">      1.00000000</i>
    <v name="DIPOL">   -100.00000000   -100.00000000   -100.00000000</v>
    <i name="EFIELD">      0.00000000</i>
   </separator>
  </separator>
  <separator name="grids" >
   <i type="int" name="NGX">   108</i>
   <i type="int" name="NGY">   120</i>
   <i type="int" name="NGZ">   108</i>
   <i type="int" name="NGXF">   216</i>
   <i type="int" name="NGYF">   240</i>
   <i type="int" name="NGZF">   216</i>
   <i type="logical" name="ADDGRID"> F  </i>
  </separator>
  <separator name="ionic" >
   <i type="int" name="NSW">   200</i>
   <i type="int" name="IBRION">     2</i>
   <i type="int" name="MDALGO">     0</i>
   <i type="int" name="ISIF">     2</i>
   <i name="PSTRESS">      0.00000000</i>
   <i name="EDIFFG">     -0.02500000</i>
   <i type="int" name="NFREE">     1</i>
   <i name="POTIM">      0.50000000</i>
   <i name="SMASS">     -3.00000000</i>
   <i name="SCALEE">      1.00000000</i>
  </separator>
  <separator name="ionic md" >
   <i name="TEBEG">      0.00010000</i>
   <i name="TEEND">      0.00010000</i>
   <i type="int" name="NBLOCK">     1</i>
   <i type="int" name="KBLOCK">   200</i>
   <i type="int" name="NPACO">   256</i>
   <i name="APACO">     16.00000000</i>
  </separator>
  <separator name="symmetry" >
   <i type="int" name="ISYM">     2</i>
   <i name="SYMPREC">      0.00001000</i>
  </separator>
  <separator name="dos" >
   <i type="int" name="LORBIT">     0</i>
   <v name="RWIGS">     -1.00000000     -1.00000000</v>
   <i type="int" name="NEDOS">   301</i>
   <i name="EMIN">     10.00000000</i>
   <i name="EMAX">    -10.00000000</i>
   <i name="EFERMI">      0.00000000</i>
  </separator>
  <separator name="writing" >
   <i type="int" name="NWRITE">     2</i>
   <i type="logical" name="LWAVE"> T  </i>
   <i type="logical" name="LDOWNSAMPLE"> F  </i>
   <i type="logical" name="LCHARG"> T  </i>
   <i type="logical" name="LPARD"> F  </i>
   <i type="logical" name="LVTOT"> F  </i>
   <i type="logical" name="LVHAR"> F  </i>
   <i type="logical" name="LELF"> F  </i>
   <i type="logical" name="LOPTICS"> F  </i>
   <v name="STM">      0.00000000      0.00000000      0.00000000      0.00000000      0.00000000      0.00000000      0.00000000</v>
  </separator>
  <separator name="performance" >
   <i type="int" name="NPAR">     4</i>
   <i type="int" name="NSIM">     4</i>
   <i type="int" name="NBLK">    -1</i>
   <i type="logical" name="LPLANE"> T  </i>
   <i type="logical" name="LSCALAPACK"> T  </i>
   <i type="logical" name="LSCAAWARE"> F  </i>
   <i type="logical" name="LSCALU"> F  </i>
   <i type="logical" name="LASYNC"> F  </i>
   <i type="logical" name="LORBITALREAL"> F  </i>
  </separator>
  <separator name="miscellaneous" >
   <i type="int" name="IDIOT">     3</i>
   <i type="int" name="ISPECIAL">     0</i>
   <i type="logical" name="LMUSIC"> F  </i>
   <v name="POMASS">     16.00000000      1.00000000</v>
   <v name="DARWINR">      0.00000000      0.00000000</v>
   <v name="DARWINV">      1.00000000      1.00000000</v>
   <i type="logical" name="LCORR"> T  </i>
  </separator>
  <i type="logical" name="GGA_COMPAT"> T  </i>
  <i type="logical" name="LBERRY"> F  </i>
  <i type="int" name="ICORELEVEL">     0</i>
  <i type="logical" name="LDAU"> F  </i>
  <i type="int" name="I_CONSTRAINED_M">     0</i>
  <separator name="electronic exchange-correlation" >
   <i type="string" name="GGA">BF</i>
   <i type="int" name="VOSKOWN">     0</i>
   <i type="logical" name="LHFCALC"> F  </i>
   <i type="string" name="PRECFOCK"></i>
   <i type="logical" name="LSYMGRAD"> F  </i>
   <i type="logical" name="LHFONE"> F  </i>
   <i type="logical" name="LRHFCALC"> F  </i>
   <i type="logical" name="LTHOMAS"> F  </i>
   <i type="logical" name="LMODELHF"> F  </i>
   <i name="ENCUT4O">     -1.00000000</i>
   <i type="int" name="EXXOEP">     0</i>
   <i type="int" name="FOURORBIT">     0</i>
   <i name="AEXX">      0.00000000</i>
   <i name="HFALPHA">      0.00000000</i>
   <i name="MCALPHA">      0.00000000</i>
   <i name="ALDAX">      1.00000000</i>
   <i name="AGGAX">      1.00000000</i>
   <i name="ALDAC">      1.00000000</i>
   <i name="AGGAC">      1.00000000</i>
   <i type="int" name="NKREDX">     1</i>
   <i type="int" name="NKREDY">     1</i>
   <i type="int" name="NKREDZ">     1</i>
   <i type="logical" name="SHIFTRED"> F  </i>
   <i type="logical" name="ODDONLY"> F  </i>
   <i type="logical" name="EVENONLY"> F  </i>
   <i type="int" name="LMAXFOCK">     0</i>
   <i type="int" name="NMAXFOCKAE">     0</i>
   <i type="logical" name="LFOCKAEDFT"> F  </i>
   <i name="HFSCREEN">      0.00000000</i>
   <i name="HFSCREENC">      0.00000000</i>
   <i type="int" name="NBANDSGWLOW">     0</i>
  </separator>
  <separator name="vdW DFT" >
   <i type="logical" name="LUSE_VDW"> T  </i>
   <i name="Zab_VDW">     -1.88670000</i>
   <i name="PARAM1">      0.12340000</i>
   <i name="PARAM2">      1.00000000</i>
   <i name="PARAM3">      0.00000000</i>
  </separator>
  <separator name="model GW" >
   <i type="int" name="MODEL_GW">     0</i>
   <i name="MODEL_EPS0">    634.56195760</i>
   <i name="MODEL_ALPHA">      1.00000000</i>
  </separator>
  <separator name="linear response parameters" >
   <i type="logical" name="LEPSILON"> F  </i>
   <i type="logical" name="LRPA"> F  </i>
   <i type="logical" name="LNABLA"> F  </i>
   <i type="logical" name="LVEL"> F  </i>
   <i type="int" name="KINTER">     0</i>
   <i name="CSHIFT">      0.10000000</i>
   <i name="OMEGAMAX">     -1.00000000</i>
   <i name="DEG_THRESHOLD">      0.00200000</i>
   <i name="RTIME">     -0.10000000</i>
   <i name="WPLASMAI">      0.00000000</i>
   <v name="DFIELD">      0.00000000      0.00000000      0.00000000</v>
   <v name="WPLASMA">      0.00000000      0.00000000      0.00000000      0.00000000      0.00000000      0.00000000      0.00000000      0.00000000      0.00000000</v>
  </separator>
  <separator name="orbital magnetization" >
   <i type="logical" name="NUCIND"> F  </i>
   <v name="MAGPOS">      0.00000000      0.00000000      0.00000000</v>
   <i type="logical" name="LNICSALL"> T  </i>
   <i type="logical" name="ORBITALMAG"> F  </i>
   <i type="logical" name="LMAGBLOCH"> F  </i>
   <i type="logical" name="LCHIMAG"> F  </i>
   <i type="logical" name="LGAUGE"> T  </i>
   <i type="int" name="MAGATOM">     0</i>
   <v name="MAGDIPOL">      0.00000000      0.00000000      0.00000000</v>
   <v name="AVECCONST">      0.00000000      0.00000000      0.00000000</v>
  </separator>
  <separator name="response functions" >
   <i type="logical" name="LADDER"> F  </i>
   <i type="logical" name="LRPAFORCE"> F  </i>
   <i type="logical" name="LFXC"> F  </i>
   <i type="logical" name="LHARTREE"> T  </i>
   <i type="int" name="IBSE">     0</i>
   <v type="int" name="KPOINT">    -1     0     0     0</v>
   <i type="logical" name="LTCTE"> F  </i>
   <i type="logical" name="LTETE"> F  </i>
   <i type="logical" name="LTRIPLET"> F  </i>
   <i type="logical" name="LFXCEPS"> F  </i>
   <i type="logical" name="LFXHEG"> F  </i>
   <i type="int" name="NATURALO">     2</i>
   <i type="logical" name="L2ORDER"> F  </i>
   <i type="logical" name="LMP2LT"> F  </i>
   <i type="logical" name="LUSEW"> F  </i>
   <i name="ENCUTGW">     -2.00000000</i>
   <i name="ENCUTGWSOFT">     -2.00000000</i>
   <i name="ENCUTLF">     -1.00000000</i>
   <i type="int" name="LMAXMP2">    -1</i>
   <i name="SCISSOR">      0.00000000</i>
   <i type="int" name="NOMEGA">     0</i>
   <i type="int" name="NOMEGAR">     0</i>
   <i type="int" name="NBANDSGW">    -1</i>
   <i type="int" name="NBANDSO">    -1</i>
   <i type="int" name="NBANDSV">    -1</i>
   <i type="int" name="NELM">   350</i>
   <i type="int" name="NELMHF">     1</i>
   <i type="int" name="DIM">     3</i>
   <i type="int" name="ANTIRES">     0</i>
   <i name="OMEGAMAX">    -30.00000000</i>
   <i name="OMEGAMIN">    -30.00000000</i>
   <i name="OMEGATL">   -200.00000000</i>
   <i type="int" name="OMEGAGRID">   140</i>
   <i name="CSHIFT">     -0.10000000</i>
   <i type="logical" name="SELFENERGY"> F  </i>
   <i type="logical" name="LSPECTRAL"> F  </i>
   <i type="logical" name="LSPECTRALGW"> F  </i>
   <i type="logical" name="LSINGLES"> F  </i>
   <i type="logical" name="LFERMIGW"> F  </i>
   <i type="logical" name="ODDONLYGW"> F  </i>
   <i type="logical" name="EVENONLYGW"> F  </i>
   <i type="int" name="NKREDLFX">     1</i>
   <i type="int" name="NKREDLFY">     1</i>
   <i type="int" name="NKREDLFZ">     1</i>
   <i type="int" name="MAXMEM">  2800</i>
   <i type="int" name="TELESCOPE">     0</i>
   <i type="int" name="TAUPAR">     1</i>
   <i type="int" name="OMEGAPAR">    -1</i>
   <i name="LAMBDA">      1.00000000</i>
  </separator>
  <separator name="External order field" >
   <i name="OFIELD_KAPPA">      0.00000000</i>
   <v name="OFIELD_K">      0.00000000      0.00000000      0.00000000</v>
   <i name="OFIELD_Q6_NEAR">      0.00000000</i>
   <i name="OFIELD_Q6_FAR">      0.00000000</i>
   <i name="OFIELD_A">      0.00000000</i>
  </separator>
  <separator name="solvation model" >
   <i type="logical" name="LSOL"> F  </i>
  </separator>
 </parameters>
 <atominfo>
  <atoms>       3 </atoms>
  <types>       2 </types>
  <array name="atoms" >
   <dimension dim="1">ion</dimension>
   <field type="string">element</field>
   <field type="int">atomtype</field>
   <set>
    <rc><c>O </c><c>   1</c></rc>
    <rc><c>H </c><c>   2</c></rc>
    <rc><c>H </c><c>   2</c></rc>
   </set>
  </array>
  <array name="atomtypes" >
   <dimension dim="1">type</dimension>
   <field type="int">atomspertype</field>
   <field type="string">element</field>
   <field>mass</field>
   <field>valence</field>
   <field type="string">pseudopotential</field>
   <set>
    <rc><c>   1</c><c>O </c><c>     16.00000000</c><c>      6.00000000</c><c>  PAW_PBE O 08Apr2002                   </c></rc>
    <rc><c>   2</c><c>H </c><c>      1.00000000</c><c>      1.00000000</c><c>  PAW_PBE H 15Jun2001                   </c></rc>
   </set>
  </array>
 </atominfo>
 <structure name="initialpos" >
  <crystal>
   <varray name="basis" >
    <v>      14.00000000       0.00000000       0.00000000 </v>
    <v>       0.00000000      15.52647800       0.00000000 </v>
    <v>       0.00000000       0.00000000      14.59630900 </v>
   </varray>
   <i name="volume">   3172.80978798 </i>
   <varray name="rec_basis" >
    <v>       0.07142857       0.00000000       0.00000000 </v>
    <v>       0.00000000       0.06440611       0.00000000 </v>
    <v>       0.00000000       0.00000000       0.06851047 </v>
   </varray>
  </crystal>
  <varray name="positions" >
   <v>       0.50000000       0.50000000       0.52042671 </v>
   <v>       0.50000000       0.54915725       0.47957329 </v>
   <v>       0.50000000       0.45084275       0.47957329 </v>
  </varray>
 </structure>
 <calculation>
  <scstep>
   <time name="dav">    0.30    0.32</time>
   <time name="total">   31.61   31.66</time>
   <energy>
    <i name="alphaZ">      0.07067908 </i>
    <i name="ewald">     99.21957327 </i>
    <i name="hartreedc">   -495.09352675 </i>
    <i name="XCdc">     34.51502528 </i>
    <i name="pawpsdc">    547.05841527 </i>
    <i name="pawaedc">   -549.14877591 </i>
    <i name="eentropy">     -0.00000000 </i>
    <i name="bandstr">   -112.64080822 </i>
    <i name="atom">    463.21242928 </i>
    <i name="e_fr_energy">    -12.80698870 </i>
    <i name="e_wo_entrp">    -12.80698870 </i>
    <i name="e_0_energy">    -12.80698870 </i>
   </energy>
  </scstep>
  <scstep>
   <time name="dav">    0.18    0.18</time>
   <time name="total">   30.91   30.94</time>
   <energy>
    <i name="alphaZ">      0.07067908 </i>
    <i name="ewald">     99.21957327 </i>
    <i name="hartreedc">   -495.07927848 </i>
    <i name="XCdc">     34.51417913 </i>
    <i name="pawpsdc">    547.03357576 </i>
    <i name="pawaedc">   -549.12373181 </i>
    <i name="eentropy">     -0.00000000 </i>
    <i name="bandstr">   -112.65441419 </i>
    <i name="atom">    463.21242928 </i>
    <i name="e_fr_energy">    -12.80698796 </i>
    <i name="e_wo_entrp">    -12.80698796 </i>
    <i name="e_0_energy">    -12.80698796 </i>
   </energy>
  </scstep>
  <structure>
   <crystal>
    <varray name="basis" >
     <v>      14.00000000       0.00000000       0.00000000 </v>
     <v>       0.00000000      15.52647800       0.00000000 </v>
     <v>       0.00000000       0.00000000      14.59630900 </v>
    </varray>
    <i name="volume">   3172.80978798 </i>
    <varray name="rec_basis" >
     <v>       0.07142857       0.00000000       0.00000000 </v>
     <v>       0.00000000       0.06440611       0.00000000 </v>
     <v>       0.00000000       0.00000000       0.06851047 </v>
    </varray>
   </crystal>
   <varray name="positions" >
    <v>       0.50000000       0.50000000       0.52042671 </v>
    <v>       0.50000000       0.54915725       0.47957329 </v>
    <v>       0.50000000       0.45084275       0.47957329 </v>
   </varray>
  </structure>
  <varray name="forces" >
   <v>       0.00000000       0.00000000      -0.25619074 </v>
   <v>       0.00000000      -0.10569665       0.12809537 </v>
   <v>       0.00000000       0.10569665       0.12809537 </v>
  </varray>
  <varray name="stress" >
   <v>      -0.03874022       0.00000000       0.00000000 </v>
   <v>       0.00000000      -0.11279735       0.00000000 </v>
   <v>       0.00000000       0.00000000      -0.11533081 </v>
  </varray>
  <energy>
   <i name="e_fr_energy">    -12.80698796 </i>
   <i name="e_wo_entrp">    -12.80698796 </i>
   <i name="e_0_energy">     -0.00000000 </i>
  </energy>
  <time name="totalsc">  153.41  154.80</time>
 </calculation>
 <calculation>
  <scstep>
   <time name="dav">    0.18    0.18</time>
   <time name="total">   31.08   31.12</time>
   <energy>
    <i name="alphaZ">      0.07067908 </i>
    <i name="ewald">    102.15498015 </i>
    <i name="hartreedc">   -496.43601418 </i>
    <i name="XCdc">     34.58121535 </i>
    <i name="pawpsdc">    547.03509824 </i>
    <i name="pawaedc">   -549.12529032 </i>
    <i name="eentropy">     -0.00000000 </i>
    <i name="bandstr">   -114.29524676 </i>
    <i name="atom">    463.21242928 </i>
    <i name="e_fr_energy">    -12.80214915 </i>
    <i name="e_wo_entrp">    -12.80214915 </i>
    <i name="e_0_energy">    -12.80214915 </i>
   </energy>
  </scstep>
  <scstep>
   <time name="dav">    0.18    0.18</time>
   <time name="total">   31.06   31.09</time>
   <energy>
    <i name="e_fr_energy">    -12.80090417 </i>
    <i name="e_wo_entrp">    -12.80090417 </i>
    <i name="e_0_energy">    -12.80090417 </i>
   </energy>
  </scstep>
  <scstep>
   <time name="dav">    0.18    0.18</time>
   <time name="total">   31.09   31.12</time>
   <energy>
    <i name="e_fr_energy">    -12.80072117 </i>
    <i name="e_wo_entrp">    -12.80072117 </i>
    <i name="e_0_energy">    -12.80072117 </i>
   </energy>
  </scstep>
  <scstep>
   <time name="dav">    0.24    0.24</time>
   <time name="total">   30.95   30.99</time>
   <energy>
    <i name="alphaZ">      0.07067908 </i>
    <i name="ewald">    102.15498015 </i>
    <i name="hartreedc">   -497.35198556 </i>
    <i name="XCdc">     34.63483923 </i>
    <i name="pawpsdc">    556.28980992 </i>
    <i name="pawaedc">   -558.40217331 </i>
    <i name="eentropy">     -0.00000000 </i>
    <i name="bandstr">   -113.40928064 </i>
    <i name="atom">    463.21242928 </i>
    <i name="e_fr_energy">    -12.80070185 </i>
    <i name="e_wo_entrp">    -12.80070185 </i>
    <i name="e_0_energy">    -12.80070185 </i>
   </energy>
  </scstep>
  <structure>
   <crystal>
    <varray name="basis" >
     <v>      14.00000000       0.00000000       0.00000000 </v>
     <v>       0.00000000      15.52647800       0.00000000 </v>
     <v>       0.00000000       0.00000000      14.59630900 </v>
    </varray>
    <i name="volume">   3172.80978798 </i>
    <varray name="rec_basis" >
     <v>       0.07142857       0.00000000       0.00000000 </v>
     <v>       0.00000000       0.06440611       0.00000000 </v>
     <v>       0.00000000       0.00000000       0.06851047 </v>
    </varray>
   </crystal>
   <varray name="positions" >
    <v>       0.50000000       0.50000000       0.51957996 </v>
    <v>       0.50000000       0.54882884       0.47999667 </v>
    <v>       0.50000000       0.45117116       0.47999667 </v>
   </varray>
  </structure>
  <varray name="forces" >
   <v>      -0.00000000       0.00000000       0.74572493 </v>
   <v>       0.00000000       0.45765457      -0.37286246 </v>
   <v>       0.00000000      -0.45765457      -0.37286246 </v>
  </varray>
  <varray name="stress" >
   <v>      -0.01440714       0.00000000       0.00000000 </v>
   <v>       0.00000000       0.33668860       0.00000000 </v>
   <v>       0.00000000       0.00000000       0.19808237 </v>
  </varray>
  <energy>
   <i name="e_fr_energy">    -12.80070185 </i>
   <i name="e_wo_entrp">    -12.80070185 </i>
   <i name="e_0_energy">     -0.00000000 </i>
  </energy>
  <time name="totalsc">  203.16  203.44</time>
 </calculation>
 <calculation>
  <scstep>
   <time name="dav">    0.18    0.18</time>
   <time name="total">   31.11   31.16</time>
   <energy>
    <i name="alphaZ">      0.07067908 </i>
    <i name="ewald">     99.91686572 </i>
    <i name="hartreedc">   -496.35775336 </i>
    <i name="XCdc">     34.58590483 </i>
    <i name="pawpsdc">    556.99449562 </i>
    <i name="pawaedc">   -559.10904069 </i>
    <i name="eentropy">     -0.00000000 </i>
    <i name="bandstr">   -112.12202126 </i>
    <i name="atom">    463.21242928 </i>
    <i name="e_fr_energy">    -12.80844076 </i>
    <i name="e_wo_entrp">    -12.80844076 </i>
    <i name="e_0_energy">    -12.80844076 </i>
   </energy>
  </scstep>
  <scstep>
   <time name="dav">    0.30    0.30</time>
   <time name="total">   31.24   31.28</time>
   <energy>
    <i name="e_fr_energy">    -12.80773745 </i>
    <i name="e_wo_entrp">    -12.80773745 </i>
    <i name="e_0_energy">    -12.80773745 </i>
   </energy>
  </scstep>
  <scstep>
   <time name="dav">    0.18    0.18</time>
   <time name="total">   30.88   30.92</time>
   <energy>
    <i name="alphaZ">      0.07067908 </i>
    <i name="ewald">     99.91686572 </i>
    <i name="hartreedc">   -495.68620876 </i>
    <i name="XCdc">     34.54661266 </i>
    <i name="pawpsdc">    551.85768782 </i>
    <i name="pawaedc">   -553.95898015 </i>
    <i name="eentropy">     -0.00000000 </i>
    <i name="bandstr">   -112.76672512 </i>
    <i name="atom">    463.21242928 </i>
    <i name="e_fr_energy">    -12.80763946 </i>
    <i name="e_wo_entrp">    -12.80763946 </i>
    <i name="e_0_energy">    -12.80763946 </i>
   </energy>
  </scstep>
  <structure>
   <crystal>
    <varray name="basis" >
     <v>      14.00000000       0.00000000       0.00000000 </v>
     <v>       0.00000000      15.52647800       0.00000000 </v>
     <v>       0.00000000       0.00000000      14.59630900 </v>
    </varray>
    <i name="volume">   3172.80978798 </i>
    <varray name="rec_basis" >
     <v>       0.07142857       0.00000000       0.00000000 </v>
     <v>       0.00000000       0.06440611       0.00000000 </v>
     <v>       0.00000000       0.00000000       0.06851047 </v>
    </varray>
   </crystal>
   <varray name="positions" >
    <v>       0.50000000       0.50000000       0.52022381 </v>
    <v>       0.50000000       0.54907856       0.47967474 </v>
    <v>       0.50000000       0.45092144       0.47967474 </v>
   </varray>
  </structure>
  <varray name="forces" >
   <v>      -0.00000000       0.00000000      -0.00504181 </v>
   <v>       0.00000000       0.02891999       0.00252090 </v>
   <v>       0.00000000      -0.02891999       0.00252090 </v>
  </varray>
  <varray name="stress" >
   <v>      -0.06069911       0.00000000       0.00000000 </v>
   <v>       0.00000000      -0.00752743       0.00000000 </v>
   <v>       0.00000000       0.00000000      -0.05502501 </v>
  </varray>
  <energy>
   <i name="e_fr_energy">    -12.80763946 </i>
   <i name="e_wo_entrp">    -12.80763946 </i>
   <i name="e_0_energy">     -0.00000000 </i>
  </energy>
  <time name="totalsc">  172.18  172.41</time>
 </calculation>
 <calculation>
  <scstep>
   <time name="dav">    0.24    0.24</time>
   <time name="total">   31.17   31.21</time>
   <energy>
    <i name="alphaZ">      0.07067908 </i>
    <i name="ewald">     99.89350326 </i>
    <i name="hartreedc">   -495.63485552 </i>
    <i name="XCdc">     34.54347862 </i>
    <i name="pawpsdc">    549.79149949 </i>
    <i name="pawaedc">   -551.88828298 </i>
    <i name="eentropy">     -0.00000000 </i>
    <i name="bandstr">   -112.79614057 </i>
    <i name="atom">    463.21242928 </i>
    <i name="e_fr_energy">    -12.80768933 </i>
    <i name="e_wo_entrp">    -12.80768933 </i>
    <i name="e_0_energy">    -12.80768933 </i>
   </energy>
  </scstep>
  <scstep>
   <time name="dav">    0.30    0.30</time>
   <time name="total">   31.03   31.06</time>
   <energy>
    <i name="alphaZ">      0.07067908 </i>
    <i name="ewald">     99.89350326 </i>
    <i name="hartreedc">   -495.62582724 </i>
    <i name="XCdc">     34.54297897 </i>
    <i name="pawpsdc">    549.59825996 </i>
    <i name="pawaedc">   -551.69438195 </i>
    <i name="eentropy">     -0.00000000 </i>
    <i name="bandstr">   -112.80533553 </i>
    <i name="atom">    463.21242928 </i>
    <i name="e_fr_energy">    -12.80769416 </i>
    <i name="e_wo_entrp">    -12.80769416 </i>
    <i name="e_0_energy">    -12.80769416 </i>
   </energy>
  </scstep>
  <structure>
   <crystal>
    <varray name="basis" >
     <v>      14.00000000       0.00000000       0.00000000 </v>
     <v>       0.00000000      15.52647800       0.00000000 </v>
     <v>       0.00000000       0.00000000      14.59630900 </v>
    </varray>
    <i name="volume">   3172.80978798 </i>
    <varray name="rec_basis" >
     <v>       0.07142857       0.00000000       0.00000000 </v>
     <v>       0.00000000       0.06440611       0.00000000 </v>
     <v>       0.00000000       0.00000000       0.06851047 </v>
    </varray>
   </crystal>
   <varray name="positions" >
    <v>       0.50000000       0.50000000       0.52023059 </v>
    <v>       0.50000000       0.54908119       0.47967135 </v>
    <v>       0.50000000       0.45091881       0.47967135 </v>
   </varray>
  </structure>
  <varray name="forces" >
   <v>       0.00000000       0.00000000      -0.02951571 </v>
   <v>       0.00000000       0.01873724       0.01475786 </v>
   <v>       0.00000000      -0.01873724       0.01475786 </v>
  </varray>
  <varray name="stress" >
   <v>      -0.04132916       0.00000000       0.00000000 </v>
   <v>       0.00000000      -0.01814748       0.00000000 </v>
   <v>       0.00000000       0.00000000      -0.04857787 </v>
  </varray>
  <energy>
   <i name="e_fr_energy">    -12.80769416 </i>
   <i name="e_wo_entrp">    -12.80769416 </i>
   <i name="e_0_energy">     -0.00000000 </i>
  </energy>
  <time name="totalsc">  141.01  141.17</time>
 </calculation>
 <calculation>
  <scstep>
   <time name="dav">    0.30    0.30</time>
   <time name="total">   31.22   31.26</time>
   <energy>
    <i name="alphaZ">      0.07067908 </i>
    <i name="ewald">     99.90842386 </i>
    <i name="hartreedc">   -495.62895805 </i>
    <i name="XCdc">     34.54311009 </i>
    <i name="pawpsdc">    549.42772158 </i>
    <i name="pawaedc">   -551.52359018 </i>
    <i name="eentropy">     -0.00000000 </i>
    <i name="bandstr">   -112.81751673 </i>
    <i name="atom">    463.21242928 </i>
    <i name="e_fr_energy">    -12.80770105 </i>
    <i name="e_wo_entrp">    -12.80770105 </i>
    <i name="e_0_energy">    -12.80770105 </i>
   </energy>
  </scstep>
  <scstep>
   <time name="dav">    0.30    0.30</time>
   <time name="total">   31.01   31.04</time>
   <energy>
    <i name="alphaZ">      0.07067908 </i>
    <i name="ewald">     99.90842386 </i>
    <i name="hartreedc">   -495.63350585 </i>
    <i name="XCdc">     34.54339496 </i>
    <i name="pawpsdc">    549.41924707 </i>
    <i name="pawaedc">   -551.51515875 </i>
    <i name="eentropy">     -0.00000000 </i>
    <i name="bandstr">   -112.81321218 </i>
    <i name="atom">    463.21242928 </i>
    <i name="e_fr_energy">    -12.80770253 </i>
    <i name="e_wo_entrp">    -12.80770253 </i>
    <i name="e_0_energy">    -12.80770253 </i>
   </energy>
  </scstep>
  <structure>
   <crystal>
    <varray name="basis" >
     <v>      14.00000000       0.00000000       0.00000000 </v>
     <v>       0.00000000      15.52647800       0.00000000 </v>
     <v>       0.00000000       0.00000000      14.59630900 </v>
    </varray>
    <i name="volume">   3172.80978798 </i>
    <varray name="rec_basis" >
     <v>       0.07142857       0.00000000       0.00000000 </v>
     <v>       0.00000000       0.06440611       0.00000000 </v>
     <v>       0.00000000       0.00000000       0.06851047 </v>
    </varray>
   </crystal>
   <varray name="positions" >
    <v>       0.50000000       0.50000000       0.52022626 </v>
    <v>       0.50000000       0.54907951       0.47967352 </v>
    <v>       0.50000000       0.45092049       0.47967352 </v>
   </varray>
  </structure>
  <varray name="forces" >
   <v>       0.00000000       0.00000000      -0.02475930 </v>
   <v>       0.00000000       0.02196740       0.01237965 </v>
   <v>       0.00000000      -0.02196740       0.01237965 </v>
  </varray>
  <varray name="stress" >
   <v>      -0.03979161       0.00000000       0.00000000 </v>
   <v>       0.00000000      -0.01533957       0.00000000 </v>
   <v>       0.00000000       0.00000000      -0.04652610 </v>
  </varray>
  <energy>
   <i name="e_fr_energy">    -12.80770253 </i>
   <i name="e_wo_entrp">    -12.80770253 </i>
   <i name="e_0_energy">     -0.00000000 </i>
  </energy>
  <time name="totalsc">  140.82  140.98</time>
 </calculation>
 <calculation>
  <scstep>
   <time name="dav">    0.30    0.30</time>
   <time name="total">   31.19   31.23</time>
   <energy>
    <i name="alphaZ">      0.07067908 </i>
    <i name="ewald">     99.91296893 </i>
    <i name="hartreedc">   -495.63480460 </i>
    <i name="XCdc">     34.54346762 </i>
    <i name="pawpsdc">    549.40798315 </i>
    <i name="pawaedc">   -551.50387874 </i>
    <i name="eentropy">     -0.00000000 </i>
    <i name="bandstr">   -112.81654853 </i>
    <i name="atom">    463.21242928 </i>
    <i name="e_fr_energy">    -12.80770379 </i>
    <i name="e_wo_entrp">    -12.80770379 </i>
    <i name="e_0_energy">    -12.80770379 </i>
   </energy>
  </scstep>
  <scstep>
   <time name="dav">    0.30    0.30</time>
   <time name="total">   30.96   31.00</time>
   <energy>
    <i name="alphaZ">      0.07067908 </i>
    <i name="ewald">     99.91296893 </i>
    <i name="hartreedc">   -495.63568446 </i>
    <i name="XCdc">     34.54353338 </i>
    <i name="pawpsdc">    549.40957145 </i>
    <i name="pawaedc">   -551.50548221 </i>
    <i name="eentropy">     -0.00000000 </i>
    <i name="bandstr">   -112.81571987 </i>
    <i name="atom">    463.21242928 </i>
    <i name="e_fr_energy">    -12.80770441 </i>
    <i name="e_wo_entrp">    -12.80770441 </i>
    <i name="e_0_energy">    -12.80770441 </i>
   </energy>
  </scstep>
  <structure>
   <crystal>
    <varray name="basis" >
     <v>      14.00000000       0.00000000       0.00000000 </v>
     <v>       0.00000000      15.52647800       0.00000000 </v>
     <v>       0.00000000       0.00000000      14.59630900 </v>
    </varray>
    <i name="volume">   3172.80978798 </i>
    <varray name="rec_basis" >
     <v>       0.07142857       0.00000000       0.00000000 </v>
     <v>       0.00000000       0.06440611       0.00000000 </v>
     <v>       0.00000000       0.00000000       0.06851047 </v>
    </varray>
   </crystal>
   <varray name="positions" >
    <v>       0.50000000       0.50000000       0.52022494 </v>
    <v>       0.50000000       0.54907900       0.47967418 </v>
    <v>       0.50000000       0.45092100       0.47967418 </v>
   </varray>
  </structure>
  <varray name="forces" >
   <v>       0.00000000       0.00000000      -0.02322461 </v>
   <v>       0.00000000       0.02290280       0.01161230 </v>
   <v>       0.00000000      -0.02290280       0.01161230 </v>
  </varray>
  <varray name="stress" >
   <v>      -0.03965899       0.00000000       0.00000000 </v>
   <v>       0.00000000      -0.01452824       0.00000000 </v>
   <v>       0.00000000       0.00000000      -0.04599533 </v>
  </varray>
  <energy>
   <i name="e_fr_energy">    -12.80770441 </i>
   <i name="e_wo_entrp">    -12.80770441 </i>
   <i name="e_0_energy">     -0.00000000 </i>
  </energy>
  <time name="totalsc">  140.49  140.67</time>
 </calculation>
 <calculation>
  <scstep>
   <time name="dav">    0.30    0.30</time>
   <time name="total">   31.17   31.21</time>
   <energy>
    <i name="alphaZ">      0.07067908 </i>
    <i name="ewald">     99.91489547 </i>
    <i name="hartreedc">   -495.63606863 </i>
    <i name="XCdc">     34.54356189 </i>
    <i name="pawpsdc">    549.40919635 </i>
    <i name="pawaedc">   -551.50510923 </i>
    <i name="eentropy">     -0.00000000 </i>
    <i name="bandstr">   -112.81728930 </i>
    <i name="atom">    463.21242928 </i>
    <i name="e_fr_energy">    -12.80770509 </i>
    <i name="e_wo_entrp">    -12.80770509 </i>
    <i name="e_0_energy">    -12.80770509 </i>
   </energy>
  </scstep>
  <scstep>
   <time name="dav">    0.30    0.30</time>
   <time name="total">   30.95   30.99</time>
   <energy>
    <i name="alphaZ">      0.07067908 </i>
    <i name="ewald">     99.91489547 </i>
    <i name="hartreedc">   -495.63634449 </i>
    <i name="XCdc">     34.54358762 </i>
    <i name="pawpsdc">    549.41222962 </i>
    <i name="pawaedc">   -551.50815295 </i>
    <i name="eentropy">     -0.00000000 </i>
    <i name="bandstr">   -112.81702907 </i>
    <i name="atom">    463.21242928 </i>
    <i name="e_fr_energy">    -12.80770543 </i>
    <i name="e_wo_entrp">    -12.80770543 </i>
    <i name="e_0_energy">    -12.80770543 </i>
   </energy>
  </scstep>
  <structure>
   <crystal>
    <varray name="basis" >
     <v>      14.00000000       0.00000000       0.00000000 </v>
     <v>       0.00000000      15.52647800       0.00000000 </v>
     <v>       0.00000000       0.00000000      14.59630900 </v>
    </varray>
    <i name="volume">   3172.80978798 </i>
    <varray name="rec_basis" >
     <v>       0.07142857       0.00000000       0.00000000 </v>
     <v>       0.00000000       0.06440611       0.00000000 </v>
     <v>       0.00000000       0.00000000       0.06851047 </v>
    </varray>
   </crystal>
   <varray name="positions" >
    <v>       0.50000000       0.50000000       0.52022438 </v>
    <v>       0.50000000       0.54907878       0.47967446 </v>
    <v>       0.50000000       0.45092122       0.47967446 </v>
   </varray>
  </structure>
  <varray name="forces" >
   <v>       0.00000000       0.00000000      -0.02255928 </v>
   <v>      -0.00000000       0.02331112       0.01127964 </v>
   <v>      -0.00000000      -0.02331112       0.01127964 </v>
  </varray>
  <varray name="stress" >
   <v>      -0.03965593       0.00000000       0.00000000 </v>
   <v>       0.00000000      -0.01418818       0.00000000 </v>
   <v>       0.00000000       0.00000000      -0.04578146 </v>
  </varray>
  <energy>
   <i name="e_fr_energy">    -12.80770543 </i>
   <i name="e_wo_entrp">    -12.80770543 </i>
   <i name="e_0_energy">     -0.00000000 </i>
  </energy>
  <time name="totalsc">  140.19  140.38</time>
 </calculation>
 <calculation>
  <scstep>
   <time name="dav">    0.24    0.24</time>
   <time name="total">   31.10   31.14</time>
   <energy>
    <i name="alphaZ">      0.07067908 </i>
    <i name="ewald">     99.91588059 </i>
    <i name="hartreedc">   -495.63644659 </i>
    <i name="XCdc">     34.54359960 </i>
    <i name="pawpsdc">    549.41396392 </i>
    <i name="pawaedc">   -551.50989113 </i>
    <i name="eentropy">     -0.00000000 </i>
    <i name="bandstr">   -112.81792060 </i>
    <i name="atom">    463.21242928 </i>
    <i name="e_fr_energy">    -12.80770585 </i>
    <i name="e_wo_entrp">    -12.80770584 </i>
    <i name="e_0_energy">    -12.80770585 </i>
   </energy>
  </scstep>
  <scstep>
   <time name="dav">    0.30    0.30</time>
   <time name="total">   30.93   30.97</time>
   <energy>
    <i name="alphaZ">      0.07067908 </i>
    <i name="ewald">     99.91588059 </i>
    <i name="hartreedc">   -495.63655125 </i>
    <i name="XCdc">     34.54361190 </i>
    <i name="pawpsdc">    549.41622231 </i>
    <i name="pawaedc">   -551.51215567 </i>
    <i name="eentropy">     -0.00000000 </i>
    <i name="bandstr">   -112.81782231 </i>
    <i name="atom">    463.21242928 </i>
    <i name="e_fr_energy">    -12.80770606 </i>
    <i name="e_wo_entrp">    -12.80770606 </i>
    <i name="e_0_energy">    -12.80770606 </i>
   </energy>
  </scstep>
  <structure>
   <crystal>
    <varray name="basis" >
     <v>      14.00000000       0.00000000       0.00000000 </v>
     <v>       0.00000000      15.52647800       0.00000000 </v>
     <v>       0.00000000       0.00000000      14.59630900 </v>
    </varray>
    <i name="volume">   3172.80978798 </i>
    <varray name="rec_basis" >
     <v>       0.07142857       0.00000000       0.00000000 </v>
     <v>       0.00000000       0.06440611       0.00000000 </v>
     <v>       0.00000000       0.00000000       0.06851047 </v>
    </varray>
   </crystal>
   <varray name="positions" >
    <v>       0.50000000       0.50000000       0.52022410 </v>
    <v>       0.50000000       0.54907867       0.47967460 </v>
    <v>       0.50000000       0.45092133       0.47967460 </v>
   </varray>
  </structure>
  <varray name="forces" >
   <v>       0.00000000       0.00000000      -0.02222313 </v>
   <v>       0.00000000       0.02351214       0.01111157 </v>
   <v>       0.00000000      -0.02351214       0.01111157 </v>
  </varray>
  <varray name="stress" >
   <v>      -0.03964915       0.00000000       0.00000000 </v>
   <v>       0.00000000      -0.01400965       0.00000000 </v>
   <v>       0.00000000       0.00000000      -0.04566011 </v>
  </varray>
  <energy>
   <i name="e_fr_energy">    -12.80770606 </i>
   <i name="e_wo_entrp">    -12.80770606 </i>
   <i name="e_0_energy">     -0.00000000 </i>
  </energy>
  <time name="totalsc">  139.89  140.08</time>
 </calculation>
 <calculation>
  <scstep>
   <time name="dav">    0.24    0.24</time>
   <time name="total">   31.08   31.12</time>
   <energy>
    <i name="alphaZ">      0.07067908 </i>
    <i name="ewald">     99.91637315 </i>
    <i name="hartreedc">   -495.63654021 </i>
    <i name="XCdc">     34.54361627 </i>
    <i name="pawpsdc">    549.41779066 </i>
    <i name="pawaedc">   -551.51372701 </i>
    <i name="eentropy">     -0.00000000 </i>
    <i name="bandstr">   -112.81832756 </i>
    <i name="atom">    463.21242928 </i>
    <i name="e_fr_energy">    -12.80770633 </i>
    <i name="e_wo_entrp">    -12.80770633 </i>
    <i name="e_0_energy">    -12.80770633 </i>
   </energy>
  </scstep>
  <scstep>
   <time name="dav">    0.24    0.24</time>
   <time name="total">   30.86   30.90</time>
   <energy>
    <i name="alphaZ">      0.07067908 </i>
    <i name="ewald">     99.91637315 </i>
    <i name="hartreedc">   -495.63656920 </i>
    <i name="XCdc">     34.54362192 </i>
    <i name="pawpsdc">    549.41908591 </i>
    <i name="pawaedc">   -551.51502549 </i>
    <i name="eentropy">     -0.00000000 </i>
    <i name="bandstr">   -112.81830112 </i>
    <i name="atom">    463.21242928 </i>
    <i name="e_fr_energy">    -12.80770647 </i>
    <i name="e_wo_entrp">    -12.80770647 </i>
    <i name="e_0_energy">    -12.80770647 </i>
   </energy>
  </scstep>
  <structure>
   <crystal>
    <varray name="basis" >
     <v>      14.00000000       0.00000000       0.00000000 </v>
     <v>       0.00000000      15.52647800       0.00000000 </v>
     <v>       0.00000000       0.00000000      14.59630900 </v>
    </varray>
    <i name="volume">   3172.80978798 </i>
    <varray name="rec_basis" >
     <v>       0.07142857       0.00000000       0.00000000 </v>
     <v>       0.00000000       0.06440611       0.00000000 </v>
     <v>       0.00000000       0.00000000       0.06851047 </v>
    </varray>
   </crystal>
   <varray name="positions" >
    <v>       0.50000000       0.50000000       0.52022395 </v>
    <v>       0.50000000       0.54907861       0.47967467 </v>
    <v>       0.50000000       0.45092139       0.47967467 </v>
   </varray>
  </structure>
  <varray name="forces" >
   <v>       0.00000000       0.00000000      -0.02205486 </v>
   <v>       0.00000000       0.02361069       0.01102743 </v>
   <v>       0.00000000      -0.02361069       0.01102743 </v>
  </varray>
  <varray name="stress" >
   <v>      -0.03964246       0.00000000       0.00000000 </v>
   <v>       0.00000000      -0.01391857       0.00000000 </v>
   <v>       0.00000000       0.00000000      -0.04559417 </v>
  </varray>
  <energy>
   <i name="e_fr_energy">    -12.80770647 </i>
   <i name="e_wo_entrp">    -12.80770647 </i>
   <i name="e_0_energy">     -0.00000000 </i>
  </energy>
  <time name="totalsc">  139.67  139.86</time>
 </calculation>
 <calculation>
  <scstep>
   <time name="dav">    0.18    0.18</time>
   <time name="total">   31.00   31.04</time>
   <energy>
    <i name="alphaZ">      0.07067908 </i>
    <i name="ewald">     99.91661944 </i>
    <i name="hartreedc">   -495.63651283 </i>
    <i name="XCdc">     34.54362284 </i>
    <i name="pawpsdc">    549.42015563 </i>
    <i name="pawaedc">   -551.51609710 </i>
    <i name="eentropy">     -0.00000000 </i>
    <i name="bandstr">   -112.81860299 </i>
    <i name="atom">    463.21242928 </i>
    <i name="e_fr_energy">    -12.80770666 </i>
    <i name="e_wo_entrp">    -12.80770666 </i>
    <i name="e_0_energy">    -12.80770666 </i>
   </energy>
  </scstep>
  <scstep>
   <time name="dav">    0.18    0.18</time>
   <time name="total">   30.79   30.83</time>
   <energy>
    <i name="alphaZ">      0.07067908 </i>
    <i name="ewald">     99.91661944 </i>
    <i name="hartreedc">   -495.63651365 </i>
    <i name="XCdc">     34.54362532 </i>
    <i name="pawpsdc">    549.42078909 </i>
    <i name="pawaedc">   -551.51673213 </i>
    <i name="eentropy">     -0.00000000 </i>
    <i name="bandstr">   -112.81860319 </i>
    <i name="atom">    463.21242928 </i>
    <i name="e_fr_energy">    -12.80770675 </i>
    <i name="e_wo_entrp">    -12.80770675 </i>
    <i name="e_0_energy">    -12.80770675 </i>
   </energy>
  </scstep>
  <structure>
   <crystal>
    <varray name="basis" >
     <v>      14.00000000       0.00000000       0.00000000 </v>
     <v>       0.00000000      15.52647800       0.00000000 </v>
     <v>       0.00000000       0.00000000      14.59630900 </v>
    </varray>
    <i name="volume">   3172.80978798 </i>
    <varray name="rec_basis" >
     <v>       0.07142857       0.00000000       0.00000000 </v>
     <v>       0.00000000       0.06440611       0.00000000 </v>
     <v>       0.00000000       0.00000000       0.06851047 </v>
    </varray>
   </crystal>
   <varray name="positions" >
    <v>       0.50000000       0.50000000       0.52022388 </v>
    <v>       0.50000000       0.54907859       0.47967471 </v>
    <v>       0.50000000       0.45092141       0.47967471 </v>
   </varray>
  </structure>
  <varray name="forces" >
   <v>      -0.00000000       0.00000000      -0.02195704 </v>
   <v>       0.00000000       0.02365959       0.01097852 </v>
   <v>       0.00000000      -0.02365959       0.01097852 </v>
  </varray>
  <varray name="stress" >
   <v>      -0.03963780       0.00000000       0.00000000 </v>
   <v>       0.00000000      -0.01387070       0.00000000 </v>
   <v>       0.00000000       0.00000000      -0.04555666 </v>
  </varray>
  <energy>
   <i name="e_fr_energy">    -12.80770675 </i>
   <i name="e_wo_entrp">    -12.80770675 </i>
   <i name="e_0_energy">     -0.00000000 </i>
  </energy>
  <time name="totalsc">  139.50  139.68</time>
 </calculation>
 <calculation>
  <scstep>
   <time name="dav">    0.18    0.18</time>
   <time name="total">   31.01   31.05</time>
   <energy>
    <i name="alphaZ">      0.07067908 </i>
    <i name="ewald">     99.91674258 </i>
    <i name="hartreedc">   -495.63645047 </i>
    <i name="XCdc">     34.54362505 </i>
    <i name="pawpsdc">    549.42143554 </i>
    <i name="pawaedc">   -551.51737972 </i>
    <i name="eentropy">     -0.00000000 </i>
    <i name="bandstr">   -112.81878824 </i>
    <i name="atom">    463.21242928 </i>
    <i name="e_fr_energy">    -12.80770689 </i>
    <i name="e_wo_entrp">    -12.80770689 </i>
    <i name="e_0_energy">    -12.80770689 </i>
   </energy>
  </scstep>
  <scstep>
   <time name="dav">    0.12    0.12</time>
   <time name="total">   30.73   30.77</time>
   <energy>
    <i name="alphaZ">      0.07067908 </i>
    <i name="ewald">     99.91674258 </i>
    <i name="hartreedc">   -495.63644467 </i>
    <i name="XCdc">     34.54362619 </i>
    <i name="pawpsdc">    549.42170486 </i>
    <i name="pawaedc">   -551.51764967 </i>
    <i name="eentropy">     -0.00000000 </i>
    <i name="bandstr">   -112.81879460 </i>
    <i name="atom">    463.21242928 </i>
    <i name="e_fr_energy">    -12.80770695 </i>
    <i name="e_wo_entrp">    -12.80770695 </i>
    <i name="e_0_energy">    -12.80770695 </i>
   </energy>
  </scstep>
  <structure>
   <crystal>
    <varray name="basis" >
     <v>      14.00000000       0.00000000       0.00000000 </v>
     <v>       0.00000000      15.52647800       0.00000000 </v>
     <v>       0.00000000       0.00000000      14.59630900 </v>
    </varray>
    <i name="volume">   3172.80978798 </i>
    <varray name="rec_basis" >
     <v>       0.07142857       0.00000000       0.00000000 </v>
     <v>       0.00000000       0.06440611       0.00000000 </v>
     <v>       0.00000000       0.00000000       0.06851047 </v>
    </varray>
   </crystal>
   <varray name="positions" >
    <v>       0.50000000       0.50000000       0.52022385 </v>
    <v>       0.50000000       0.54907857       0.47967472 </v>
    <v>       0.50000000       0.45092143       0.47967472 </v>
   </varray>
  </structure>
  <varray name="forces" >
   <v>       0.00000000       0.00000000      -0.02192803 </v>
   <v>       0.00000000       0.02368165       0.01096401 </v>
   <v>       0.00000000      -0.02368165       0.01096401 </v>
  </varray>
  <varray name="stress" >
   <v>      -0.03962396       0.00000000       0.00000000 </v>
   <v>       0.00000000      -0.01384123       0.00000000 </v>
   <v>       0.00000000       0.00000000      -0.04553023 </v>
  </varray>
  <energy>
   <i name="e_fr_energy">    -12.80770695 </i>
   <i name="e_wo_entrp">    -12.80770695 </i>
   <i name="e_0_energy">     -0.00000000 </i>
  </energy>
  <time name="totalsc">  151.58  152.94</time>
 </calculation>
 <calculation>
  <scstep>
   <time name="dav">    0.18    0.18</time>
   <time name="total">   30.99   31.03</time>
   <energy>
    <i name="alphaZ">      0.07067908 </i>
    <i name="ewald">     99.91680415 </i>
    <i name="hartreedc">   -495.63639175 </i>
    <i name="XCdc">     34.54362627 </i>
    <i name="pawpsdc">    549.42212714 </i>
    <i name="pawaedc">   -551.51807301 </i>
    <i name="eentropy">     -0.00000000 </i>
    <i name="bandstr">   -112.81890823 </i>
    <i name="atom">    463.21242928 </i>
    <i name="e_fr_energy">    -12.80770707 </i>
    <i name="e_wo_entrp">    -12.80770707 </i>
    <i name="e_0_energy">    -12.80770707 </i>
   </energy>
  </scstep>
  <scstep>
   <time name="dav">    0.12    0.12</time>
   <time name="total">   30.73   30.77</time>
   <energy>
    <i name="alphaZ">      0.07067908 </i>
    <i name="ewald">     99.91680415 </i>
    <i name="hartreedc">   -495.63636783 </i>
    <i name="XCdc">     34.54362566 </i>
    <i name="pawpsdc">    549.42217602 </i>
    <i name="pawaedc">   -551.51812164 </i>
    <i name="eentropy">     -0.00000000 </i>
    <i name="bandstr">   -112.81893183 </i>
    <i name="atom">    463.21242928 </i>
    <i name="e_fr_energy">    -12.80770710 </i>
    <i name="e_wo_entrp">    -12.80770710 </i>
    <i name="e_0_energy">    -12.80770710 </i>
   </energy>
  </scstep>
  <structure>
   <crystal>
    <varray name="basis" >
     <v>      14.00000000       0.00000000       0.00000000 </v>
     <v>       0.00000000      15.52647800       0.00000000 </v>
     <v>       0.00000000       0.00000000      14.59630900 </v>
    </varray>
    <i name="volume">   3172.80978798 </i>
    <varray name="rec_basis" >
     <v>       0.07142857       0.00000000       0.00000000 </v>
     <v>       0.00000000       0.06440611       0.00000000 </v>
     <v>       0.00000000       0.00000000       0.06851047 </v>
    </varray>
   </crystal>
   <varray name="positions" >
    <v>       0.50000000       0.50000000       0.52022383 </v>
    <v>       0.50000000       0.54907857       0.47967473 </v>
    <v>       0.50000000       0.45092143       0.47967473 </v>
   </varray>
  </structure>
  <varray name="forces" >
   <v>       0.00000000       0.00000000      -0.02191541 </v>
   <v>       0.00000000       0.02369459       0.01095770 </v>
   <v>       0.00000000      -0.02369459       0.01095770 </v>
  </varray>
  <varray name="stress" >
   <v>      -0.03962633       0.00000000       0.00000000 </v>
   <v>       0.00000000      -0.01383356       0.00000000 </v>
   <v>       0.00000000       0.00000000      -0.04552304 </v>
  </varray>
  <energy>
   <i name="e_fr_energy">    -12.80770710 </i>
   <i name="e_wo_entrp">    -12.80770710 </i>
   <i name="e_0_energy">     -0.00000000 </i>
  </energy>
  <time name="totalsc">  139.56  139.77</time>
 </calculation>
 <calculation>
  <scstep>
   <time name="dav">    0.24    0.24</time>
   <time name="total">   31.05   31.10</time>
   <energy>
    <i name="alphaZ">      0.07067908 </i>
    <i name="ewald">     99.91683493 </i>
    <i name="hartreedc">   -495.63630423 </i>
    <i name="XCdc">     34.54362470 </i>
    <i name="pawpsdc">    549.42236698 </i>
    <i name="pawaedc">   -551.51831284 </i>
    <i name="eentropy">     -0.00000000 </i>
    <i name="bandstr">   -112.81902511 </i>
    <i name="atom">    463.21242928 </i>
    <i name="e_fr_energy">    -12.80770720 </i>
    <i name="e_wo_entrp">    -12.80770720 </i>
    <i name="e_0_energy">    -12.80770720 </i>
   </energy>
  </scstep>
  <scstep>
   <time name="dav">    0.12    0.12</time>
   <time name="total">   30.74   30.78</time>
   <energy>
    <i name="alphaZ">      0.07067908 </i>
    <i name="ewald">     99.91683493 </i>
    <i name="hartreedc">   -495.63630359 </i>
    <i name="XCdc">     34.54362498 </i>
    <i name="pawpsdc">    549.42238249 </i>
    <i name="pawaedc">   -551.51832828 </i>
    <i name="eentropy">     -0.00000000 </i>
    <i name="bandstr">   -112.81902612 </i>
    <i name="atom">    463.21242928 </i>
    <i name="e_fr_energy">    -12.80770721 </i>
    <i name="e_wo_entrp">    -12.80770721 </i>
    <i name="e_0_energy">    -12.80770721 </i>
   </energy>
  </scstep>
  <structure>
   <crystal>
    <varray name="basis" >
     <v>      14.00000000       0.00000000       0.00000000 </v>
     <v>       0.00000000      15.52647800       0.00000000 </v>
     <v>       0.00000000       0.00000000      14.59630900 </v>
    </varray>
    <i name="volume">   3172.80978798 </i>
    <varray name="rec_basis" >
     <v>       0.07142857       0.00000000       0.00000000 </v>
     <v>       0.00000000       0.06440611       0.00000000 </v>
     <v>       0.00000000       0.00000000       0.06851047 </v>
    </varray>
   </crystal>
   <varray name="positions" >
    <v>       0.50000000       0.50000000       0.52022382 </v>
    <v>       0.50000000       0.54907856       0.47967474 </v>
    <v>       0.50000000       0.45092144       0.47967474 </v>
   </varray>
  </structure>
  <varray name="forces" >
   <v>       0.00000000       0.00000000      -0.02190672 </v>
   <v>       0.00000000       0.02370053       0.01095336 </v>
   <v>       0.00000000      -0.02370053       0.01095336 </v>
  </varray>
  <varray name="stress" >
   <v>      -0.03962146       0.00000000       0.00000000 </v>
   <v>       0.00000000      -0.01382491       0.00000000 </v>
   <v>       0.00000000       0.00000000      -0.04551392 </v>
  </varray>
  <energy>
   <i name="e_fr_energy">    -12.80770721 </i>
   <i name="e_wo_entrp">    -12.80770721 </i>
   <i name="e_0_energy">     -0.00000000 </i>
  </energy>
  <time name="totalsc">  139.77  139.96</time>
 </calculation>
 <calculation>
  <scstep>
   <time name="dav">    0.30    0.30</time>
   <time name="total">   31.13   31.17</time>
   <energy>
    <i name="alphaZ">      0.07067908 </i>
    <i name="ewald">     99.91685033 </i>
    <i name="hartreedc">   -495.63629214 </i>
    <i name="XCdc">     34.54362522 </i>
    <i name="pawpsdc">    549.42242058 </i>
    <i name="pawaedc">   -551.51836654 </i>
    <i name="eentropy">     -0.00000000 </i>
    <i name="bandstr">   -112.81905306 </i>
    <i name="atom">    463.21242928 </i>
    <i name="e_fr_energy">    -12.80770725 </i>
    <i name="e_wo_entrp">    -12.80770725 </i>
    <i name="e_0_energy">    -12.80770725 </i>
   </energy>
  </scstep>
  <scstep>
   <time name="dav">    0.12    0.12</time>
   <time name="total">   30.74   30.79</time>
   <energy>
    <i name="alphaZ">      0.07067908 </i>
    <i name="ewald">     99.91685033 </i>
    <i name="hartreedc">   -495.63628611 </i>
    <i name="XCdc">     34.54362504 </i>
    <i name="pawpsdc">    549.42243259 </i>
    <i name="pawaedc">   -551.51837846 </i>
    <i name="eentropy">     -0.00000000 </i>
    <i name="bandstr">   -112.81905900 </i>
    <i name="atom">    463.21242928 </i>
    <i name="e_fr_energy">    -12.80770725 </i>
    <i name="e_wo_entrp">    -12.80770725 </i>
    <i name="e_0_energy">    -12.80770725 </i>
   </energy>
  </scstep>
  <structure>
   <crystal>
    <varray name="basis" >
     <v>      14.00000000       0.00000000       0.00000000 </v>
     <v>       0.00000000      15.52647800       0.00000000 </v>
     <v>       0.00000000       0.00000000      14.59630900 </v>
    </varray>
    <i name="volume">   3172.80978798 </i>
    <varray name="rec_basis" >
     <v>       0.07142857       0.00000000       0.00000000 </v>
     <v>       0.00000000       0.06440611       0.00000000 </v>
     <v>       0.00000000       0.00000000       0.06851047 </v>
    </varray>
   </crystal>
   <varray name="positions" >
    <v>       0.50000000       0.50000000       0.52022381 </v>
    <v>       0.50000000       0.54907856       0.47967474 </v>
    <v>       0.50000000       0.45092144       0.47967474 </v>
   </varray>
  </structure>
  <varray name="forces" >
   <v>       0.00000000       0.00000000      -0.02190157 </v>
   <v>      -0.00000000       0.02370384       0.01095078 </v>
   <v>      -0.00000000      -0.02370384       0.01095078 </v>
  </varray>
  <varray name="stress" >
   <v>      -0.03962142       0.00000000       0.00000000 </v>
   <v>       0.00000000      -0.01382306       0.00000000 </v>
   <v>       0.00000000       0.00000000      -0.04551258 </v>
  </varray>
  <energy>
   <i name="e_fr_energy">    -12.80770725 </i>
   <i name="e_wo_entrp">    -12.80770725 </i>
   <i name="e_0_energy">     -0.00000000 </i>
  </energy>
  <time name="totalsc">  140.11  140.33</time>
 </calculation>
 <calculation>
  <scstep>
   <time name="dav">    0.24    0.24</time>
   <time name="total">   31.11   31.15</time>
   <energy>
    <i name="alphaZ">      0.07067908 </i>
    <i name="ewald">     99.91685802 </i>
    <i name="hartreedc">   -495.63627645 </i>
    <i name="XCdc">     34.54362502 </i>
    <i name="pawpsdc">    549.42248075 </i>
    <i name="pawaedc">   -551.51842672 </i>
    <i name="eentropy">     -0.00000000 </i>
    <i name="bandstr">   -112.81907627 </i>
    <i name="atom">    463.21242928 </i>
    <i name="e_fr_energy">    -12.80770727 </i>
    <i name="e_wo_entrp">    -12.80770727 </i>
    <i name="e_0_energy">    -12.80770727 </i>
   </energy>
  </scstep>
  <scstep>
   <time name="dav">    0.12    0.12</time>
   <time name="total">   30.77   30.81</time>
   <energy>
    <i name="alphaZ">      0.07067908 </i>
    <i name="ewald">     99.91685802 </i>
    <i name="hartreedc">   -495.63627696 </i>
    <i name="XCdc">     34.54362512 </i>
    <i name="pawpsdc">    549.42248466 </i>
    <i name="pawaedc">   -551.51843061 </i>
    <i name="eentropy">     -0.00000000 </i>
    <i name="bandstr">   -112.81907588 </i>
    <i name="atom">    463.21242928 </i>
    <i name="e_fr_energy">    -12.80770728 </i>
    <i name="e_wo_entrp">    -12.80770728 </i>
    <i name="e_0_energy">    -12.80770728 </i>
   </energy>
  </scstep>
  <structure>
   <crystal>
    <varray name="basis" >
     <v>      14.00000000       0.00000000       0.00000000 </v>
     <v>       0.00000000      15.52647800       0.00000000 </v>
     <v>       0.00000000       0.00000000      14.59630900 </v>
    </varray>
    <i name="volume">   3172.80978798 </i>
    <varray name="rec_basis" >
     <v>       0.07142857       0.00000000       0.00000000 </v>
     <v>       0.00000000       0.06440611       0.00000000 </v>
     <v>       0.00000000       0.00000000       0.06851047 </v>
    </varray>
   </crystal>
   <varray name="positions" >
    <v>       0.50000000       0.50000000       0.52022381 </v>
    <v>       0.50000000       0.54907856       0.47967474 </v>
    <v>       0.50000000       0.45092144       0.47967474 </v>
   </varray>
  </structure>
  <varray name="forces" >
   <v>       0.00000000       0.00000000      -0.02189957 </v>
   <v>       0.00000000       0.02370521       0.01094978 </v>
   <v>       0.00000000      -0.02370521       0.01094978 </v>
  </varray>
  <varray name="stress" >
   <v>      -0.03962061       0.00000000       0.00000000 </v>
   <v>       0.00000000      -0.01382090       0.00000000 </v>
   <v>       0.00000000       0.00000000      -0.04551045 </v>
  </varray>
  <energy>
   <i name="e_fr_energy">    -12.80770728 </i>
   <i name="e_wo_entrp">    -12.80770728 </i>
   <i name="e_0_energy">     -0.00000000 </i>
  </energy>
  <time name="totalsc">  140.25  140.83</time>
 </calculation>
 <calculation>
  <scstep>
   <time name="dav">    0.24    0.24</time>
   <time name="total">   31.11   31.15</time>
   <energy>
    <i name="alphaZ">      0.07067908 </i>
    <i name="ewald">     99.91686187 </i>
    <i name="hartreedc">   -495.63627531 </i>
    <i name="XCdc">     34.54362523 </i>
    <i name="pawpsdc">    549.42249222 </i>
    <i name="pawaedc">   -551.51843819 </i>
    <i name="eentropy">     -0.00000000 </i>
    <i name="bandstr">   -112.81908148 </i>
    <i name="atom">    463.21242928 </i>
    <i name="e_fr_energy">    -12.80770729 </i>
    <i name="e_wo_entrp">    -12.80770729 </i>
    <i name="e_0_energy">    -12.80770729 </i>
   </energy>
  </scstep>
  <scstep>
   <time name="dav">    0.12    0.12</time>
   <time name="total">   30.77   30.82</time>
   <energy>
    <i name="alphaZ">      0.07067908 </i>
    <i name="ewald">     99.91686187 </i>
    <i name="hartreedc">   -495.63627379 </i>
    <i name="XCdc">     34.54362519 </i>
    <i name="pawpsdc">    549.42249469 </i>
    <i name="pawaedc">   -551.51844063 </i>
    <i name="eentropy">     -0.00000000 </i>
    <i name="bandstr">   -112.81908298 </i>
    <i name="atom">    463.21242928 </i>
    <i name="e_fr_energy">    -12.80770729 </i>
    <i name="e_wo_entrp">    -12.80770729 </i>
    <i name="e_0_energy">    -12.80770729 </i>
   </energy>
  </scstep>
  <structure>
   <crystal>
    <varray name="basis" >
     <v>      14.00000000       0.00000000       0.00000000 </v>
     <v>       0.00000000      15.52647800       0.00000000 </v>
     <v>       0.00000000       0.00000000      14.59630900 </v>
    </varray>
    <i name="volume">   3172.80978798 </i>
    <varray name="rec_basis" >
     <v>       0.07142857       0.00000000       0.00000000 </v>
     <v>       0.00000000       0.06440611       0.00000000 </v>
     <v>       0.00000000       0.00000000       0.06851047 </v>
    </varray>
   </crystal>
   <varray name="positions" >
    <v>       0.50000000       0.50000000       0.52022381 </v>
    <v>       0.50000000       0.54907856       0.47967474 </v>
    <v>       0.50000000       0.45092144       0.47967474 </v>
   </varray>
  </structure>
  <varray name="forces" >
   <v>       0.00000000       0.00000000      -0.02189840 </v>
   <v>       0.00000000       0.02370598       0.01094920 </v>
   <v>       0.00000000      -0.02370598       0.01094920 </v>
  </varray>
  <varray name="stress" >
   <v>      -0.03962048       0.00000000       0.00000000 </v>
   <v>       0.00000000      -0.01382045       0.00000000 </v>
   <v>       0.00000000       0.00000000      -0.04551014 </v>
  </varray>
  <energy>
   <i name="e_fr_energy">    -12.80770729 </i>
   <i name="e_wo_entrp">    -12.80770729 </i>
   <i name="e_0_energy">     -0.00000000 </i>
  </energy>
  <time name="totalsc">  140.31  140.52</time>
 </calculation>
 <calculation>
  <scstep>
   <time name="dav">    0.24    0.24</time>
   <time name="total">   31.13   31.17</time>
   <energy>
    <i name="alphaZ">      0.07067908 </i>
    <i name="ewald">     99.91686380 </i>
    <i name="hartreedc">   -495.63627239 </i>
    <i name="XCdc">     34.54362522 </i>
    <i name="pawpsdc">    549.42250662 </i>
    <i name="pawaedc">   -551.51845260 </i>
    <i name="eentropy">     -0.00000000 </i>
    <i name="bandstr">   -112.81908631 </i>
    <i name="atom">    463.21242928 </i>
    <i name="e_fr_energy">    -12.80770729 </i>
    <i name="e_wo_entrp">    -12.80770729 </i>
    <i name="e_0_energy">    -12.80770729 </i>
   </energy>
  </scstep>
  <scstep>
   <time name="dav">    0.12    0.12</time>
   <time name="total">   30.78   30.82</time>
   <energy>
    <i name="alphaZ">      0.07067908 </i>
    <i name="ewald">     99.91686380 </i>
    <i name="hartreedc">   -495.63627224 </i>
    <i name="XCdc">     34.54362524 </i>
    <i name="pawpsdc">    549.42250752 </i>
    <i name="pawaedc">   -551.51845349 </i>
    <i name="eentropy">     -0.00000000 </i>
    <i name="bandstr">   -112.81908648 </i>
    <i name="atom">    463.21242928 </i>
    <i name="e_fr_energy">    -12.80770729 </i>
    <i name="e_wo_entrp">    -12.80770729 </i>
    <i name="e_0_energy">    -12.80770729 </i>
   </energy>
  </scstep>
  <structure>
   <crystal>
    <varray name="basis" >
     <v>      14.00000000       0.00000000       0.00000000 </v>
     <v>       0.00000000      15.52647800       0.00000000 </v>
     <v>       0.00000000       0.00000000      14.59630900 </v>
    </varray>
    <i name="volume">   3172.80978798 </i>
    <varray name="rec_basis" >
     <v>       0.07142857       0.00000000       0.00000000 </v>
     <v>       0.00000000       0.06440611       0.00000000 </v>
     <v>       0.00000000       0.00000000       0.06851047 </v>
    </varray>
   </crystal>
   <varray name="positions" >
    <v>       0.50000000       0.50000000       0.52022381 </v>
    <v>       0.50000000       0.54907856       0.47967474 </v>
    <v>       0.50000000       0.45092144       0.47967474 </v>
   </varray>
  </structure>
  <varray name="forces" >
   <v>       0.00000000       0.00000000      -0.02189784 </v>
   <v>       0.00000000       0.02370634       0.01094892 </v>
   <v>       0.00000000      -0.02370634       0.01094892 </v>
  </varray>
  <varray name="stress" >
   <v>      -0.03962039       0.00000000       0.00000000 </v>
   <v>       0.00000000      -0.01381998       0.00000000 </v>
   <v>       0.00000000       0.00000000      -0.04550975 </v>
  </varray>
  <energy>
   <i name="e_fr_energy">    -12.80770729 </i>
   <i name="e_wo_entrp">    -12.80770729 </i>
   <i name="e_0_energy">     -0.00000000 </i>
  </energy>
  <time name="totalsc">  140.37  140.56</time>
 </calculation>
 <calculation>
  <scstep>
   <time name="dav">    0.24    0.24</time>
   <time name="total">   31.12   31.16</time>
   <energy>
    <i name="alphaZ">      0.07067908 </i>
    <i name="ewald">     99.91686476 </i>
    <i name="hartreedc">   -495.63627120 </i>
    <i name="XCdc">     34.54362526 </i>
    <i name="pawpsdc">    549.42251107 </i>
    <i name="pawaedc">   -551.51845704 </i>
    <i name="eentropy">     -0.00000000 </i>
    <i name="bandstr">   -112.81908850 </i>
    <i name="atom">    463.21242928 </i>
    <i name="e_fr_energy">    -12.80770730 </i>
    <i name="e_wo_entrp">    -12.80770730 </i>
    <i name="e_0_energy">    -12.80770730 </i>
   </energy>
  </scstep>
  <scstep>
   <time name="dav">    0.12    0.12</time>
   <time name="total">   30.79   30.83</time>
   <energy>
    <i name="alphaZ">      0.07067908 </i>
    <i name="ewald">     99.91686476 </i>
    <i name="hartreedc">   -495.63627078 </i>
    <i name="XCdc">     34.54362524 </i>
    <i name="pawpsdc">    549.42251092 </i>
    <i name="pawaedc">   -551.51845688 </i>
    <i name="eentropy">     -0.00000000 </i>
    <i name="bandstr">   -112.81908893 </i>
    <i name="atom">    463.21242928 </i>
    <i name="e_fr_energy">    -12.80770730 </i>
    <i name="e_wo_entrp">    -12.80770730 </i>
    <i name="e_0_energy">    -12.80770730 </i>
   </energy>
  </scstep>
  <structure>
   <crystal>
    <varray name="basis" >
     <v>      14.00000000       0.00000000       0.00000000 </v>
     <v>       0.00000000      15.52647800       0.00000000 </v>
     <v>       0.00000000       0.00000000      14.59630900 </v>
    </varray>
    <i name="volume">   3172.80978798 </i>
    <varray name="rec_basis" >
     <v>       0.07142857       0.00000000       0.00000000 </v>
     <v>       0.00000000       0.06440611       0.00000000 </v>
     <v>       0.00000000       0.00000000       0.06851047 </v>
    </varray>
   </crystal>
   <varray name="positions" >
    <v>       0.50000000       0.50000000       0.52022381 </v>
    <v>       0.50000000       0.54907856       0.47967474 </v>
    <v>       0.50000000       0.45092144       0.47967474 </v>
   </varray>
  </structure>
  <varray name="forces" >
   <v>       0.00000000       0.00000000      -0.02189749 </v>
   <v>      -0.00000000       0.02370653       0.01094874 </v>
   <v>      -0.00000000      -0.02370653       0.01094874 </v>
  </varray>
  <varray name="stress" >
   <v>      -0.03962030       0.00000000       0.00000000 </v>
   <v>       0.00000000      -0.01381982       0.00000000 </v>
   <v>       0.00000000       0.00000000      -0.04550963 </v>
  </varray>
  <energy>
   <i name="e_fr_energy">    -12.80770730 </i>
   <i name="e_wo_entrp">    -12.80770730 </i>
   <i name="e_0_energy">     -0.00000000 </i>
  </energy>
  <time name="totalsc">  140.37  140.57</time>
 </calculation>
 <calculation>
  <scstep>
   <time name="dav">    0.12    0.12</time>
   <time name="total">   31.00   31.04</time>
   <energy>
    <i name="alphaZ">      0.07067908 </i>
    <i name="ewald">     99.91686524 </i>
    <i name="hartreedc">   -495.63627076 </i>
    <i name="XCdc">     34.54362526 </i>
    <i name="pawpsdc">    549.42251206 </i>
    <i name="pawaedc">   -551.51845803 </i>
    <i name="eentropy">     -0.00000000 </i>
    <i name="bandstr">   -112.81908943 </i>
    <i name="atom">    463.21242928 </i>
    <i name="e_fr_energy">    -12.80770730 </i>
    <i name="e_wo_entrp">    -12.80770730 </i>
    <i name="e_0_energy">    -12.80770730 </i>
   </energy>
  </scstep>
  <scstep>
   <time name="dav">    0.12    0.12</time>
   <time name="total">   30.79   30.83</time>
   <energy>
    <i name="alphaZ">      0.07067908 </i>
    <i name="ewald">     99.91686524 </i>
    <i name="hartreedc">   -495.63627084 </i>
    <i name="XCdc">     34.54362527 </i>
    <i name="pawpsdc">    549.42251274 </i>
    <i name="pawaedc">   -551.51845871 </i>
    <i name="eentropy">     -0.00000000 </i>
    <i name="bandstr">   -112.81908936 </i>
    <i name="atom">    463.21242928 </i>
    <i name="e_fr_energy">    -12.80770730 </i>
    <i name="e_wo_entrp">    -12.80770730 </i>
    <i name="e_0_energy">    -12.80770730 </i>
   </energy>
  </scstep>
  <structure>
   <crystal>
    <varray name="basis" >
     <v>      14.00000000       0.00000000       0.00000000 </v>
     <v>       0.00000000      15.52647800       0.00000000 </v>
     <v>       0.00000000       0.00000000      14.59630900 </v>
    </varray>
    <i name="volume">   3172.80978798 </i>
    <varray name="rec_basis" >
     <v>       0.07142857       0.00000000       0.00000000 </v>
     <v>       0.00000000       0.06440611       0.00000000 </v>
     <v>       0.00000000       0.00000000       0.06851047 </v>
    </varray>
   </crystal>
   <varray name="positions" >
    <v>       0.50000000       0.50000000       0.52022381 </v>
    <v>       0.50000000       0.54907856       0.47967474 </v>
    <v>       0.50000000       0.45092144       0.47967474 </v>
   </varray>
  </structure>
  <varray name="forces" >
   <v>       0.00000000      -0.00000000      -0.02189729 </v>
   <v>       0.00000000       0.02370661       0.01094864 </v>
   <v>       0.00000000      -0.02370661       0.01094864 </v>
  </varray>
  <varray name="stress" >
   <v>      -0.03962027       0.00000000       0.00000000 </v>
   <v>       0.00000000      -0.01381970       0.00000000 </v>
   <v>       0.00000000       0.00000000      -0.04550959 </v>
  </varray>
  <energy>
   <i name="e_fr_energy">    -12.80770730 </i>
   <i name="e_wo_entrp">    -12.80770730 </i>
   <i name="e_0_energy">     -0.00000000 </i>
  </energy>
  <time name="totalsc">  140.29  140.47</time>
 </calculation>
 <calculation>
  <scstep>
   <time name="dav">    0.18    0.18</time>
   <time name="total">   31.07   31.11</time>
   <energy>
    <i name="alphaZ">      0.07067908 </i>
    <i name="ewald">     99.21957327 </i>
    <i name="hartreedc">   -495.30972683 </i>
    <i name="XCdc">     34.52752751 </i>
    <i name="pawpsdc">    549.42251369 </i>
    <i name="pawaedc">   -551.51845966 </i>
    <i name="eentropy">     -0.00000000 </i>
    <i name="bandstr">   -112.43160128 </i>
    <i name="atom">    463.21242928 </i>
    <i name="e_fr_energy">    -12.80706494 </i>
    <i name="e_wo_entrp">    -12.80706494 </i>
    <i name="e_0_energy">    -12.80706494 </i>
   </energy>
  </scstep>
  <scstep>
   <time name="dav">    0.18    0.18</time>
   <time name="total">   31.03   31.08</time>
   <energy>
    <i name="e_fr_energy">    -12.80697926 </i>
    <i name="e_wo_entrp">    -12.80697926 </i>
    <i name="e_0_energy">    -12.80697926 </i>
   </energy>
  </scstep>
  <scstep>
   <time name="dav">    0.24    0.24</time>
   <time name="total">   30.85   30.89</time>
   <energy>
    <i name="alphaZ">      0.07067908 </i>
    <i name="ewald">     99.21957327 </i>
    <i name="hartreedc">   -495.08894047 </i>
    <i name="XCdc">     34.51465583 </i>
    <i name="pawpsdc">    547.76147645 </i>
    <i name="pawaedc">   -549.85318258 </i>
    <i name="eentropy">     -0.00000000 </i>
    <i name="bandstr">   -112.64366406 </i>
    <i name="atom">    463.21242928 </i>
    <i name="e_fr_energy">    -12.80697320 </i>
    <i name="e_wo_entrp">    -12.80697320 </i>
    <i name="e_0_energy">    -12.80697320 </i>
   </energy>
  </scstep>
  <structure>
   <crystal>
    <varray name="basis" >
     <v>      14.00000000       0.00000000       0.00000000 </v>
     <v>       0.00000000      15.52647800       0.00000000 </v>
     <v>       0.00000000       0.00000000      14.59630900 </v>
    </varray>
    <i name="volume">   3172.80978798 </i>
    <varray name="rec_basis" >
     <v>       0.07142857       0.00000000       0.00000000 </v>
     <v>       0.00000000       0.06440611       0.00000000 </v>
     <v>       0.00000000       0.00000000       0.06851047 </v>
    </varray>
   </crystal>
   <varray name="positions" >
    <v>       0.50000000       0.50000000       0.52042671 </v>
    <v>       0.50000000       0.54915725       0.47957329 </v>
    <v>       0.50000000       0.45084275       0.47957329 </v>
   </varray>
  </structure>
  <varray name="forces" >
   <v>      -0.00000000       0.00000000      -0.25415175 </v>
   <v>       0.00000000      -0.10543528       0.12707588 </v>
   <v>       0.00000000       0.10543528       0.12707588 </v>
  </varray>
  <varray name="stress" >
   <v>      -0.04031270       0.00000000       0.00000000 </v>
   <v>       0.00000000      -0.10697784       0.00000000 </v>
   <v>       0.00000000       0.00000000      -0.11418333 </v>
  </varray>
  <energy>
   <i name="e_fr_energy">    -12.80697320 </i>
   <i name="e_wo_entrp">    -12.80697320 </i>
   <i name="e_0_energy">     -0.00000000 </i>
  </energy>
