 vasp.5.4.4.18Apr17-6-g9f103f2a35 (build Feb 25 2019 10:51:38) complex          
  
 executed on             LinuxIFC date 2021.12.16  09:11:02
 running on   40 total cores
 distrk:  each k-point on   40 cores,    1 groups
 distr:  one band on NCORES_PER_BAND=  10 cores,    4 groups


--------------------------------------------------------------------------------------------------------


 INCAR:
 POTCAR:    PAW_PBE C 08Apr2002                   
 POTCAR:    PAW_PBE O 08Apr2002                   

 ----------------------------------------------------------------------------- 
|                                                                             |
|  ADVICE TO THIS USER RUNNING 'VASP/VAMP'   (HEAR YOUR MASTER'S VOICE ...):  |
|                                                                             |
|      You have switched on vdW-DFT.                                          |
|      This routine was written and supplied by Jiri Klimes.                  |
|      We recommed that you carefully read and cite the following             |
|      publication                                                            |
|      J. Klimes, D.R. Bowler, A. Michelides                                  |
|        J. Phys.: Cond Matt. 22 022201 (2010)                                |
|      J. Klimes, D.R. Bowler, A. Michelides                                  |
|        Phys. Rev. B. 83, 195131 (2011)                                      |
|      and references therein.                                                |
|                                                                             |
 ----------------------------------------------------------------------------- 

 POTCAR:    PAW_PBE C 08Apr2002                   
   VRHFIN =C: s2p2                                                              
   LEXCH  = PE                                                                  
   EATOM  =   147.1560 eV,   10.8157 Ry                                         
                                                                                
   TITEL  = PAW_PBE C 08Apr2002                                                 
   LULTRA =        F    use ultrasoft PP ?                                      
   IUNSCR =        1    unscreen: 0-lin 1-nonlin 2-no                           
   RPACOR =    1.200    partial core radius                                     
   POMASS =   12.011; ZVAL   =    4.000    mass and valenz                      
   RCORE  =    1.500    outmost cutoff radius                                   
   RWIGS  =    1.630; RWIGS  =    0.863    wigner-seitz radius (au A)           
   ENMAX  =  400.000; ENMIN  =  300.000 eV                                      
   ICORE  =        2    local potential                                         
   LCOR   =        T    correct aug charges                                     
   LPAW   =        T    paw PP                                                  
   EAUG   =  644.873                                                            
   DEXC   =    0.000                                                            
   RMAX   =    1.529    core radius for proj-oper                               
   RAUG   =    1.300    factor for augmentation sphere                          
   RDEP   =    1.501    radius for radial grids                                 
   RDEPT  =    1.300    core radius for aug-charge                              
                                                                                
   Atomic configuration                                                         
    4 entries                                                                   
     n  l   j            E        occ.                                          
     1  0  0.50      -273.3789   2.0000                                         
     2  0  0.50       -13.7508   2.0000                                         
     2  1  0.50        -5.2854   2.0000                                         
     3  2  1.50        -5.4423   0.0000                                         
   Description                                                                  
     l       E           TYP  RCUT    TYP  RCUT                                 
     0    -13.7508458     23  1.200                                             
     0     -8.2022199     23  1.200                                             
     1     -5.2854383     23  1.500                                             
     1     34.0145650     23  1.500                                             
     2     -5.4423304      7  1.500                                             
  local pseudopotential read in
  partial core-charges read in
  partial kinetic energy density read in
  atomic valenz-charges read in
  non local Contribution for L=           0  read in
    real space projection operators read in
  non local Contribution for L=           0  read in
    real space projection operators read in
  non local Contribution for L=           1  read in
    real space projection operators read in
  non local Contribution for L=           1  read in
    real space projection operators read in
    PAW grid and wavefunctions read in
 
   number of l-projection  operators is LMAX  =           4
   number of lm-projection operators is LMMAX =           8
 
 POTCAR:    PAW_PBE O 08Apr2002                   
   VRHFIN =O: s2p4                                                              
   LEXCH  = PE                                                                  
   EATOM  =   432.3788 eV,   31.7789 Ry                                         
                                                                                
   TITEL  = PAW_PBE O 08Apr2002                                                 
   LULTRA =        F    use ultrasoft PP ?                                      
   IUNSCR =        1    unscreen: 0-lin 1-nonlin 2-no                           
   RPACOR =    1.200    partial core radius                                     
   POMASS =   16.000; ZVAL   =    6.000    mass and valenz                      
   RCORE  =    1.520    outmost cutoff radius                                   
   RWIGS  =    1.550; RWIGS  =    0.820    wigner-seitz radius (au A)           
   ENMAX  =  400.000; ENMIN  =  300.000 eV                                      
   ICORE  =        2    local potential                                         
   LCOR   =        T    correct aug charges                                     
   LPAW   =        T    paw PP                                                  
   EAUG   =  605.392                                                            
   DEXC   =    0.000                                                            
   RMAX   =    1.553    core radius for proj-oper                               
   RAUG   =    1.300    factor for augmentation sphere                          
   RDEP   =    1.550    radius for radial grids                                 
   RDEPT  =    1.329    core radius for aug-charge                              
                                                                                
   Atomic configuration                                                         
    4 entries                                                                   
     n  l   j            E        occ.                                          
     1  0  0.50      -514.6923   2.0000                                         
     2  0  0.50       -23.9615   2.0000                                         
     2  1  0.50        -9.0305   4.0000                                         
     3  2  1.50        -9.5241   0.0000                                         
   Description                                                                  
     l       E           TYP  RCUT    TYP  RCUT                                 
     0    -23.9615318     23  1.200                                             
     0     -9.5240782     23  1.200                                             
     1     -9.0304911     23  1.520                                             
     1      8.1634956     23  1.520                                             
     2     -9.5240782      7  1.500                                             
  local pseudopotential read in
  partial core-charges read in
  partial kinetic energy density read in
  kinetic energy density of atom read in
  atomic valenz-charges read in
  non local Contribution for L=           0  read in
    real space projection operators read in
  non local Contribution for L=           0  read in
    real space projection operators read in
  non local Contribution for L=           1  read in
    real space projection operators read in
  non local Contribution for L=           1  read in
    real space projection operators read in
    PAW grid and wavefunctions read in
 
   number of l-projection  operators is LMAX  =           4
   number of lm-projection operators is LMMAX =           8
 

 ----------------------------------------------------------------------------- 
|                                                                             |
|  ADVICE TO THIS USER RUNNING 'VASP/VAMP'   (HEAR YOUR MASTER'S VOICE ...):  |
|                                                                             |
|      You enforced a specific xc-type in the INCAR file,                     |
|      a different type was found on the POTCAR file                          |
|          I HOPE YOU KNOW, WHAT YOU ARE  DOING                               |
|                                                                             |
 ----------------------------------------------------------------------------- 

  PAW_PBE C 08Apr2002                   :
 energy of atom  1       EATOM= -147.1560
 kinetic energy error for atom=    0.0076 (will be added to EATOM!!)
  PAW_PBE O 08Apr2002                   :
 energy of atom  2       EATOM= -432.3788
 kinetic energy error for atom=    0.0224 (will be added to EATOM!!)
 
 
 POSCAR:  C  O                                   
  positions in cartesian coordinates
  No initial velocities read in
 exchange correlation table for  LEXCH =       17
   RHO(1)=    0.500       N(1)  =     2000
   RHO(2)=  100.500       N(2)  =     4000

 VTST: version 3.2, (02/03/18)

 CHAIN: initializing optimizer
 
 OPT: Using VASP Conjugate-Gradient optimizer
 CHAIN: Read ICHAIN            0
 
 POSCAR:  C  O                                   
  positions in cartesian coordinates
  No initial velocities read in
 


--------------------------------------------------------------------------------------------------------


 ion  position               nearest neighbor table
   1  0.500  0.500  0.500-   2 1.18   3 1.18
   2  0.500  0.500  0.572-   1 1.18
   3  0.500  0.500  0.428-   1 1.18
 
  LATTYP: Found a simple tetragonal cell.
 ALAT       =    14.0000000000
 C/A-ratio  =     1.1683797143
  
  Lattice vectors:
  
 A1 = (  14.0000000000,   0.0000000000,   0.0000000000)
 A2 = (   0.0000000000,  14.0000000000,   0.0000000000)
 A3 = (   0.0000000000,   0.0000000000,  16.3573160000)


Analysis of symmetry for initial positions (statically):
=====================================================================
 Subroutine PRICEL returns:
 Original cell was already a primitive cell.
 

 Routine SETGRP: Setting up the symmetry group for a 
 simple tetragonal supercell.


 Subroutine GETGRP returns: Found 16 space group operations
 (whereof 16 operations were pure point group operations)
 out of a pool of 16 trial point group operations.


The static configuration has the point symmetry D_4h.


Analysis of symmetry for dynamics (positions and initial velocities):
=====================================================================
 Subroutine PRICEL returns:
 Original cell was already a primitive cell.
 

 Routine SETGRP: Setting up the symmetry group for a 
 simple tetragonal supercell.


 Subroutine GETGRP returns: Found 16 space group operations
 (whereof 16 operations were pure point group operations)
 out of a pool of 16 trial point group operations.


The dynamic configuration has the point symmetry D_4h.


 Subroutine INISYM returns: Found 16 space group operations
 (whereof 16 operations are pure point group operations),
 and found     1 'primitive' translations

 
 
 KPOINTS: KPOINTS created by Atomic Simulation Env

Automatic generation of k-mesh.
Space group operators:
 irot       det(A)        alpha          n_x          n_y          n_z        tau_x        tau_y        tau_z
    1     1.000000     0.000000     1.000000     0.000000     0.000000     0.000000     0.000000     0.000000
    2    -1.000000     0.000000     1.000000     0.000000     0.000000     0.000000     0.000000     0.000000
    3     1.000000    90.000000     0.000000     0.000000    -1.000000     0.000000     0.000000     0.000000
    4    -1.000000    90.000000     0.000000     0.000000    -1.000000     0.000000     0.000000     0.000000
    5     1.000000   180.000000     0.000000     0.000000     1.000000     0.000000     0.000000     0.000000
    6    -1.000000   180.000000     0.000000     0.000000     1.000000     0.000000     0.000000     0.000000
    7     1.000000    90.000000     0.000000     0.000000     1.000000     0.000000     0.000000     0.000000
    8    -1.000000    90.000000     0.000000     0.000000     1.000000     0.000000     0.000000     0.000000
    9     1.000000   180.000000     0.000000     1.000000     0.000000     0.000000     0.000000     0.000000
   10    -1.000000   180.000000     0.000000     1.000000     0.000000     0.000000     0.000000     0.000000
   11     1.000000   180.000000     0.707107     0.707107     0.000000     0.000000     0.000000     0.000000
   12    -1.000000   180.000000     0.707107     0.707107     0.000000     0.000000     0.000000     0.000000
   13     1.000000   180.000000     1.000000     0.000000     0.000000     0.000000     0.000000     0.000000
   14    -1.000000   180.000000     1.000000     0.000000     0.000000     0.000000     0.000000     0.000000
   15     1.000000   180.000000     0.707107    -0.707107     0.000000     0.000000     0.000000     0.000000
   16    -1.000000   180.000000     0.707107    -0.707107     0.000000     0.000000     0.000000     0.000000
 
 Subroutine IBZKPT returns following result:
 ===========================================
 
 Found      1 irreducible k-points:
 
 Following reciprocal coordinates:
            Coordinates               Weight
  0.000000  0.000000  0.000000      1.000000
 
 Following cartesian coordinates:
            Coordinates               Weight
  0.000000  0.000000  0.000000      1.000000
 


--------------------------------------------------------------------------------------------------------




 Dimension of arrays:
   k-points           NKPTS =      1   k-points in BZ     NKDIM =      1   number of bands    NBANDS=     12
   number of dos      NEDOS =    301   number of ions     NIONS =      3
   non local maximal  LDIM  =      4   non local SUM 2l+1 LMDIM =      8
   total plane-waves  NPLWV = ******
   max r-space proj   IRMAX =      1   max aug-charges    IRDMAX=   5863
   dimension x,y,z NGX =   108 NGY =  108 NGZ =  120
   dimension x,y,z NGXF=   216 NGYF=  216 NGZF=  240
   support grid    NGXF=   216 NGYF=  216 NGZF=  240
   ions per type =               1   2
   NGX,Y,Z   is equivalent  to a cutoff of  12.82, 12.82, 12.20 a.u.
   NGXF,Y,Z  is equivalent  to a cutoff of  25.65, 25.65, 24.39 a.u.

 SYSTEM =  unknown system                          
 POSCAR =   C  O                                   

 Startparameter for this run:
   NWRITE =      2    write-flag & timer
   PREC   = accura    normal or accurate (medium, high low for compatibility)
   ISTART =      0    job   : 0-new  1-cont  2-samecut
   ICHARG =      2    charge: 1-file 2-atom 10-const
   ISPIN  =      1    spin polarized calculation?
   LNONCOLLINEAR =      F non collinear calculations
   LSORBIT =      F    spin-orbit coupling
   INIWAV =      1    electr: 0-lowe 1-rand  2-diag
   LASPH  =      F    aspherical Exc in radial PAW
   METAGGA=      F    non-selfconsistent MetaGGA calc.

 Electronic Relaxation 1
   ENCUT  =  500.0 eV  36.75 Ry    6.06 a.u.  25.53 25.53 29.82*2*pi/ulx,y,z
   ENINI  =  500.0     initial cutoff
   ENAUG  =  644.9 eV  augmentation charge cutoff
   NELM   =    350;   NELMIN=  2; NELMDL=  0     # of ELM steps 
   EDIFF  = 0.1E-03   stopping-criterion for ELM
   LREAL  =      F    real-space projection
   NLSPLINE    = F    spline interpolate recip. space projectors
   LCOMPAT=      F    compatible to vasp.4.4
   GGA_COMPAT  = T    GGA compatible to vasp.4.4-vasp.4.6
   LMAXPAW     = -100 max onsite density
   LMAXMIX     =    2 max onsite mixed and CHGCAR
   VOSKOWN=      0    Vosko Wilk Nusair interpolation
   ROPT   =    0.00000   0.00000
 Ionic relaxation
   EDIFFG = -.3E-01   stopping-criterion for IOM
   NSW    =    200    number of steps for IOM
   NBLOCK =      1;   KBLOCK =    200    inner block; outer block 
   IBRION =      2    ionic relax: 0-MD 1-quasi-New 2-CG
   NFREE  =      1    steps in history (QN), initial steepest desc. (CG)
   ISIF   =      2    stress and relaxation
   IWAVPR =     11    prediction:  0-non 1-charg 2-wave 3-comb
   ISYM   =      2    0-nonsym 1-usesym 2-fastsym
   LCORR  =      T    Harris-Foulkes like correction to forces

   POTIM  = 0.5000    time-step for ionic-motion
   TEIN   =    0.0    initial temperature
   TEBEG  =    0.0;   TEEND  =   0.0 temperature during run
   SMASS  =  -3.00    Nose mass-parameter (am)
   estimated Nose-frequenzy (Omega)   =  0.10E-29 period in steps =****** mass=  -0.448E-26a.u.
   SCALEE = 1.0000    scale energy and forces
   NPACO  =    256;   APACO  = 16.0  distance and # of slots for P.C.
   PSTRESS=    0.0 pullay stress

  Mass of Ions in am
   POMASS =  12.01 16.00
  Ionic Valenz
   ZVAL   =   4.00  6.00
  Atomic Wigner-Seitz radii
   RWIGS  =  -1.00 -1.00
  virtual crystal weights 
   VCA    =   1.00  1.00
   NELECT =      16.0000    total number of electrons
   NUPDOWN=      -1.0000    fix difference up-down

 DOS related values:
   EMIN   =  10.00;   EMAX   =-10.00  energy-range for DOS
   EFERMI =   0.00
   ISMEAR =    -1;   SIGMA  =   0.10  broadening in eV -4-tet -1-fermi 0-gaus

 Electronic relaxation 2 (details)
   IALGO  =     38    algorithm
   LDIAG  =      T    sub-space diagonalisation (order eigenvalues)
   LSUBROT=      F    optimize rotation matrix (better conditioning)
   TURBO    =      0    0=normal 1=particle mesh
   IRESTART =      0    0=no restart 2=restart with 2 vectors
   NREBOOT  =      0    no. of reboots
   NMIN     =      0    reboot dimension
   EREF     =   0.00    reference energy to select bands
   IMIX   =      4    mixing-type and parameters
     AMIX     =   0.40;   BMIX     =  1.00
     AMIX_MAG =   1.60;   BMIX_MAG =  1.00
     AMIN     =   0.10
     WC   =   100.;   INIMIX=   1;  MIXPRE=   1;  MAXMIX= -45

 Intra band minimization:
   WEIMIN = 0.0010     energy-eigenvalue tresh-hold
   EBREAK =  0.21E-05  absolut break condition
   DEPER  =   0.30     relativ break condition  

   TIME   =   0.40     timestep for ELM

  volume/ion in A,a.u.               =    1068.68      7211.79
  Fermi-wavevector in a.u.,A,eV,Ry     =   0.279764  0.528678  1.064901  0.078268
  Thomas-Fermi vector in A             =   1.127846
 
 Write flags
   LWAVE        =      T    write WAVECAR
   LDOWNSAMPLE  =      F    k-point downsampling of WAVECAR
   LCHARG       =      T    write CHGCAR
   LVTOT        =      F    write LOCPOT, total local potential
   LVHAR        =      F    write LOCPOT, Hartree potential only
   LELF         =      F    write electronic localiz. function (ELF)
   LORBIT       =      0    0 simple, 1 ext, 2 COOP (PROOUT), +10 PAW based schemes


 Dipole corrections
   LMONO  =      F    monopole corrections only (constant potential shift)
   LDIPOL =      F    correct potential (dipole corrections)
   IDIPOL =      0    1-x, 2-y, 3-z, 4-all directions 
   EPSILON=  1.0000000 bulk dielectric constant

 Exchange correlation treatment:
   GGA     =    BF    GGA type
   LEXCH   =    17    internal setting for exchange type
   VOSKOWN=      0    Vosko Wilk Nusair interpolation
   LHFCALC =     F    Hartree Fock is set to
   LHFONE  =     F    Hartree Fock one center treatment
   AEXX    =    0.0000 exact exchange contribution

 vdW DFT:
   LUSE_VDW   =     T    switch on vdW DFT
   Zab_VDW    =******    correlation parameter
   PARAM1     =0.1234
   PARAM2     =1.0000
   PARAM3     =0.0000
   -- rVV10 --
   BPARAM     = 6.3000
   CPARAM     = 0.0093

 Linear response parameters
   LEPSILON=     F    determine dielectric tensor
   LRPA    =     F    only Hartree local field effects (RPA)
   LNABLA  =     F    use nabla operator in PAW spheres
   LVEL    =     F    velocity operator in full k-point grid
   LINTERFAST=   F  fast interpolation
   KINTER  =     0    interpolate to denser k-point grid
   CSHIFT  =0.1000    complex shift for real part using Kramers Kronig
   OMEGAMAX=  -1.0    maximum frequency
   DEG_THRESHOLD= 0.2000000E-02 threshold for treating states as degnerate
   RTIME   =   -0.100 relaxation time in fs
  (WPLASMAI=    0.000 imaginary part of plasma frequency in eV, 0.658/RTIME)
   DFIELD  = 0.0000000 0.0000000 0.0000000 field for delta impulse in time
 
 Orbital magnetization related:
   ORBITALMAG=     F  switch on orbital magnetization
   LCHIMAG   =     F  perturbation theory with respect to B field
   DQ        =  0.001000  dq finite difference perturbation B field
   LLRAUG    =     F  two centre corrections for induced B field



--------------------------------------------------------------------------------------------------------


 conjugate gradient relaxation of ions
 charge density and potential will be updated during run
 non-spin polarized calculation
 Variant of blocked Davidson
 Davidson routine will perform the subspace rotation
 perform sub-space diagonalisation
    after iterative eigenvector-optimisation
 modified Broyden-mixing scheme, WC =      100.0
 initial mixing is a Kerker type mixing with AMIX =  0.4000 and BMIX =      1.0000
 Hartree-type preconditioning will be used
 using additional bands            4
 reciprocal scheme for non local part
 use partial core corrections
 calculate Harris-corrections to forces 
   (improved forces if not selfconsistent)
 use gradient corrections 
 use of overlap-Matrix (Vanderbilt PP)
 Fermi-smearing in eV        SIGMA  =   0.10


--------------------------------------------------------------------------------------------------------


  energy-cutoff  :      500.00
  volume of cell :     3206.03
      direct lattice vectors                 reciprocal lattice vectors
    14.000000000  0.000000000  0.000000000     0.071428571  0.000000000  0.000000000
     0.000000000 14.000000000  0.000000000     0.000000000  0.071428571  0.000000000
     0.000000000  0.000000000 16.357316000     0.000000000  0.000000000  0.061134724

  length of vectors
    14.000000000 14.000000000 16.357316000     0.071428571  0.071428571  0.061134724


 
 k-points in units of 2pi/SCALE and weight: KPOINTS created by Atomic Simulation Env
   0.00000000  0.00000000  0.00000000       1.000
 
 k-points in reciprocal lattice and weights: KPOINTS created by Atomic Simulation Env
   0.00000000  0.00000000  0.00000000       1.000
 
 position of ions in fractional coordinates (direct lattice) 
   0.50000000  0.50000000  0.50000000
   0.50000000  0.50000000  0.57205693
   0.50000000  0.50000000  0.42794307
 
 position of ions in cartesian coordinates  (Angst):
   7.00000000  7.00000000  8.17865800
   7.00000000  7.00000000  9.35731600
   7.00000000  7.00000000  7.00000000
 


--------------------------------------------------------------------------------------------------------


 k-point  1 :   0.0000 0.0000 0.0000  plane waves:   81375

 maximum and minimum number of plane-waves per node :      8141     8134

 maximum number of plane-waves:     81375
 maximum index in each direction: 
   IXMAX=   25   IYMAX=   25   IZMAX=   29
   IXMIN=  -25   IYMIN=  -25   IZMIN=  -29


 parallel 3D FFT for wavefunctions:
    minimum data exchange during FFTs selected (reduces bandwidth)
 parallel 3D FFT for charge:
    minimum data exchange during FFTs selected (reduces bandwidth)


 total amount of memory used by VASP MPI-rank0    69523. kBytes
=======================================================================

   base      :      30000. kBytes
   nonl-proj :       1432. kBytes
   fftplans  :      14454. kBytes
   grid      :      23243. kBytes
   one-center:          3. kBytes
   wavefun   :        391. kBytes
 
     INWAV:  cpu time    0.0000: real time    0.0002
 Broyden mixing: mesh for mixing (old mesh)
   NGX = 51   NGY = 51   NGZ = 59
  (NGX  =216   NGY  =216   NGZ  =240)
  gives a total of 153459 points

 initial charge density was supplied:
 charge density of overlapping atoms calculated
 number of electron      16.0000000 magnetization 
 keeping initial charge density in first step


--------------------------------------------------------------------------------------------------------


 Maximum index for augmentation-charges            0 (set IRDMAX)


--------------------------------------------------------------------------------------------------------


 First call to EWALD:  gamma=   0.120
 Maximum number of real-space cells 3x 3x 3
 Maximum number of reciprocal cells 3x 3x 3

    FEWALD:  cpu time    0.0010: real time    0.0010


--------------------------------------- Iteration      1(   1)  ---------------------------------------


vdW kernel read from vdw_kernel.bindat
  0.0000  0.2424  0.5071  0.7962  1.1119  1.4567  1.8333  2.2446  2.6937  3.1842
  3.7199  4.3049  4.9438  5.6415  6.4036  7.2358  8.1446  9.1372 10.2212 11.4050
 12.6979 14.1099 15.6519 17.3360 19.1751 21.1837 23.3773 25.7729 28.3892 31.2465
 34.3669 37.7748 41.4965 45.5611 50.0000
 
    POTLOK:  cpu time    6.3150: real time    6.3405
    SETDIJ:  cpu time    0.0043: real time    0.0050
     EDDAV:  cpu time    0.1336: real time    0.1619
       DOS:  cpu time    0.0010: real time    0.0015
    --------------------------------------------
      LOOP:  cpu time    6.4539: real time    6.5089

 eigenvalue-minimisations  :    40
 total energy-change (2. order) : 0.1342834E+03  (-0.3657499E+03)
 number of electron      16.0000000 magnetization 
 augmentation part       16.0000000 magnetization 

 Free energy of the ion-electron system (eV)
  ---------------------------------------------------
  alpha Z        PSCENC =         0.33364503
  Ewald energy   TEWEN  =       456.06034496
  -Hartree energ DENC   =     -1264.30712430
  -exchange      EXHF   =         0.00000000
  -V(xc)+E(xc)   XCENC  =        68.40641883
  PAW double counting   =       801.55409099     -806.17344951
  entropy T*S    EENTRO =        -0.00417572
  eigenvalues    EBANDS =      -146.34392990
  atomic energy  EATOM  =      1024.75762730
  Solvation  Ediel_sol  =         0.00000000
  ---------------------------------------------------
  free energy    TOTEN  =       134.28344768 eV

  energy without entropy =      134.28762341  energy(sigma->0) =      134.28553555


--------------------------------------------------------------------------------------------------------




--------------------------------------- Iteration      1(   2)  ---------------------------------------


     EDDAV:  cpu time    0.1423: real time    0.1438
       DOS:  cpu time    0.0001: real time    0.0001
    --------------------------------------------
      LOOP:  cpu time    0.1424: real time    0.1439

 eigenvalue-minimisations  :    48
 total energy-change (2. order) :-0.1135856E+03  (-0.1124740E+03)
 number of electron      16.0000000 magnetization 
 augmentation part       16.0000000 magnetization 

 Free energy of the ion-electron system (eV)
  ---------------------------------------------------
  alpha Z        PSCENC =         0.33364503
  Ewald energy   TEWEN  =       456.06034496
  -Hartree energ DENC   =     -1264.30712430
  -exchange      EXHF   =         0.00000000
  -V(xc)+E(xc)   XCENC  =        68.40641883
  PAW double counting   =       801.55409099     -806.17344951
  entropy T*S    EENTRO =        -0.00323590
  eigenvalues    EBANDS =      -259.93048171
  atomic energy  EATOM  =      1024.75762730
  Solvation  Ediel_sol  =         0.00000000
  ---------------------------------------------------
  free energy    TOTEN  =        20.69783570 eV

  energy without entropy =       20.70107160  energy(sigma->0) =       20.69945365


--------------------------------------------------------------------------------------------------------




--------------------------------------- Iteration      1(   3)  ---------------------------------------


     EDDAV:  cpu time    0.1377: real time    0.1398
       DOS:  cpu time    0.0001: real time    0.0001
    --------------------------------------------
      LOOP:  cpu time    0.1378: real time    0.1399

 eigenvalue-minimisations  :    48
 total energy-change (2. order) :-0.3599637E+02  (-0.3488606E+02)
 number of electron      16.0000000 magnetization 
 augmentation part       16.0000000 magnetization 

 Free energy of the ion-electron system (eV)
  ---------------------------------------------------
  alpha Z        PSCENC =         0.33364503
  Ewald energy   TEWEN  =       456.06034496
  -Hartree energ DENC   =     -1264.30712430
  -exchange      EXHF   =         0.00000000
  -V(xc)+E(xc)   XCENC  =        68.40641883
  PAW double counting   =       801.55409099     -806.17344951
  entropy T*S    EENTRO =        -0.00000000
  eigenvalues    EBANDS =      -295.93009080
  atomic energy  EATOM  =      1024.75762730
  Solvation  Ediel_sol  =         0.00000000
  ---------------------------------------------------
  free energy    TOTEN  =       -15.29853750 eV

  energy without entropy =      -15.29853750  energy(sigma->0) =      -15.29853750


--------------------------------------------------------------------------------------------------------




--------------------------------------- Iteration      1(   4)  ---------------------------------------


     EDDAV:  cpu time    0.1004: real time    0.1009
       DOS:  cpu time    0.0001: real time    0.0001
    --------------------------------------------
      LOOP:  cpu time    0.1005: real time    0.1010

 eigenvalue-minimisations  :    32
 total energy-change (2. order) :-0.5093030E+01  (-0.5087794E+01)
 number of electron      16.0000000 magnetization 
 augmentation part       16.0000000 magnetization 

 Free energy of the ion-electron system (eV)
  ---------------------------------------------------
  alpha Z        PSCENC =         0.33364503
  Ewald energy   TEWEN  =       456.06034496
  -Hartree energ DENC   =     -1264.30712430
  -exchange      EXHF   =         0.00000000
  -V(xc)+E(xc)   XCENC  =        68.40641883
  PAW double counting   =       801.55409099     -806.17344951
  entropy T*S    EENTRO =        -0.00000000
  eigenvalues    EBANDS =      -301.02312062
  atomic energy  EATOM  =      1024.75762730
  Solvation  Ediel_sol  =         0.00000000
  ---------------------------------------------------
  free energy    TOTEN  =       -20.39156732 eV

  energy without entropy =      -20.39156732  energy(sigma->0) =      -20.39156732


--------------------------------------------------------------------------------------------------------




--------------------------------------- Iteration      1(   5)  ---------------------------------------


     EDDAV:  cpu time    0.1003: real time    0.1008
       DOS:  cpu time    0.0001: real time    0.0001
    CHARGE:  cpu time    0.1253: real time    0.1258
    MIXING:  cpu time    0.0053: real time    0.0063
    --------------------------------------------
      LOOP:  cpu time    0.2311: real time    0.2330

 eigenvalue-minimisations  :    32
 total energy-change (2. order) :-0.8638284E-01  (-0.8620509E-01)
 number of electron      16.0000009 magnetization 
 augmentation part        1.5478881 magnetization 

 Broyden mixing:
  rms(total) = 0.10428E+01    rms(broyden)= 0.10418E+01
  rms(prec ) = 0.11419E+01
  weight for this iteration     100.00

 Free energy of the ion-electron system (eV)
  ---------------------------------------------------
  alpha Z        PSCENC =         0.33364503
  Ewald energy   TEWEN  =       456.06034496
  -Hartree energ DENC   =     -1264.30712430
  -exchange      EXHF   =         0.00000000
  -V(xc)+E(xc)   XCENC  =        68.40641883
  PAW double counting   =       801.55409099     -806.17344951
  entropy T*S    EENTRO =        -0.00000000
  eigenvalues    EBANDS =      -301.10950346
  atomic energy  EATOM  =      1024.75762730
  Solvation  Ediel_sol  =         0.00000000
  ---------------------------------------------------
  free energy    TOTEN  =       -20.47795016 eV

  energy without entropy =      -20.47795016  energy(sigma->0) =      -20.47795016


--------------------------------------------------------------------------------------------------------




--------------------------------------- Iteration      1(   6)  ---------------------------------------


    POTLOK:  cpu time    6.0360: real time    6.0530
    SETDIJ:  cpu time    0.0017: real time    0.0017
     EDDAV:  cpu time    0.1033: real time    0.1035
       DOS:  cpu time    0.0002: real time    0.0002
    CHARGE:  cpu time    0.1247: real time    0.1251
    MIXING:  cpu time    0.0059: real time    0.0060
    --------------------------------------------
      LOOP:  cpu time    6.2718: real time    6.2895

 eigenvalue-minimisations  :    32
 total energy-change (2. order) : 0.1910745E+01  (-0.6616240E+00)
 number of electron      16.0000007 magnetization 
 augmentation part        1.3312601 magnetization 

 Broyden mixing:
  rms(total) = 0.44920E+00    rms(broyden)= 0.44895E+00
  rms(prec ) = 0.46920E+00
  weight for this iteration     100.00

 eigenvalues of (default mixing * dielectric matrix)
  average eigenvalue GAMMA=   0.9768
  0.9768

 Free energy of the ion-electron system (eV)
  ---------------------------------------------------
  alpha Z        PSCENC =         0.33364503
  Ewald energy   TEWEN  =       456.06034496
  -Hartree energ DENC   =     -1293.64811918
  -exchange      EXHF   =         0.00000000
  -V(xc)+E(xc)   XCENC  =        70.22329583
  PAW double counting   =      1068.99221479    -1073.95278214
  entropy T*S    EENTRO =        -0.00000000
  eigenvalues    EBANDS =      -271.33343177
  atomic energy  EATOM  =      1024.75762730
  Solvation  Ediel_sol  =         0.00000000
  ---------------------------------------------------
  free energy    TOTEN  =       -18.56720517 eV

  energy without entropy =      -18.56720517  energy(sigma->0) =      -18.56720517


--------------------------------------------------------------------------------------------------------




--------------------------------------- Iteration      1(   7)  ---------------------------------------


    POTLOK:  cpu time    6.0416: real time    6.0589
    SETDIJ:  cpu time    0.0016: real time    0.0016
     EDDAV:  cpu time    0.0943: real time    0.0945
       DOS:  cpu time    0.0001: real time    0.0001
    CHARGE:  cpu time    0.1242: real time    0.1246
    MIXING:  cpu time    0.0057: real time    0.0068
    --------------------------------------------
      LOOP:  cpu time    6.2676: real time    6.2865

 eigenvalue-minimisations  :    28
 total energy-change (2. order) : 0.1214546E+00  (-0.4500546E-01)
 number of electron      16.0000008 magnetization 
 augmentation part        1.3509334 magnetization 

 Broyden mixing:
  rms(total) = 0.25585E+00    rms(broyden)= 0.25585E+00
  rms(prec ) = 0.26685E+00
  weight for this iteration     100.00

 eigenvalues of (default mixing * dielectric matrix)
  average eigenvalue GAMMA=   1.6165
  0.9349  2.2981

 Free energy of the ion-electron system (eV)
  ---------------------------------------------------
  alpha Z        PSCENC =         0.33364503
  Ewald energy   TEWEN  =       456.06034496
  -Hartree energ DENC   =     -1298.53866215
  -exchange      EXHF   =         0.00000000
  -V(xc)+E(xc)   XCENC  =        70.44529278
  PAW double counting   =      1242.87005399    -1247.69515724
  entropy T*S    EENTRO =        -0.00000000
  eigenvalues    EBANDS =      -266.67889525
  atomic energy  EATOM  =      1024.75762730
  Solvation  Ediel_sol  =         0.00000000
  ---------------------------------------------------
  free energy    TOTEN  =       -18.44575057 eV

  energy without entropy =      -18.44575057  energy(sigma->0) =      -18.44575057


--------------------------------------------------------------------------------------------------------




--------------------------------------- Iteration      1(   8)  ---------------------------------------


    POTLOK:  cpu time    6.0376: real time    6.0561
    SETDIJ:  cpu time    0.0016: real time    0.0016
     EDDAV:  cpu time    0.0942: real time    0.0944
       DOS:  cpu time    0.0001: real time    0.0001
    CHARGE:  cpu time    0.1250: real time    0.1254
    MIXING:  cpu time    0.0072: real time    0.0082
    --------------------------------------------
      LOOP:  cpu time    6.2657: real time    6.2858

 eigenvalue-minimisations  :    28
 total energy-change (2. order) : 0.5314032E-01  (-0.2853784E-01)
 number of electron      16.0000008 magnetization 
 augmentation part        1.3448380 magnetization 

 Broyden mixing:
  rms(total) = 0.57594E-01    rms(broyden)= 0.57580E-01
  rms(prec ) = 0.64401E-01
  weight for this iteration     100.00

 eigenvalues of (default mixing * dielectric matrix)
  average eigenvalue GAMMA=   1.4179
  2.4299  0.9120  0.9120

 Free energy of the ion-electron system (eV)
  ---------------------------------------------------
  alpha Z        PSCENC =         0.33364503
  Ewald energy   TEWEN  =       456.06034496
  -Hartree energ DENC   =     -1306.59460119
  -exchange      EXHF   =         0.00000000
  -V(xc)+E(xc)   XCENC  =        70.86617672
  PAW double counting   =      1529.51453561    -1534.24944635
  entropy T*S    EENTRO =        -0.00000000
  eigenvalues    EBANDS =      -259.08089233
  atomic energy  EATOM  =      1024.75762730
  Solvation  Ediel_sol  =         0.00000000
  ---------------------------------------------------
  free energy    TOTEN  =       -18.39261025 eV

  energy without entropy =      -18.39261025  energy(sigma->0) =      -18.39261025


--------------------------------------------------------------------------------------------------------




--------------------------------------- Iteration      1(   9)  ---------------------------------------


    POTLOK:  cpu time    6.0619: real time    6.0832
    SETDIJ:  cpu time    0.0015: real time    0.0015
     EDDAV:  cpu time    0.1030: real time    0.1033
       DOS:  cpu time    0.0001: real time    0.0001
    CHARGE:  cpu time    0.1242: real time    0.1245
    MIXING:  cpu time    0.0060: real time    0.0060
    --------------------------------------------
      LOOP:  cpu time    6.2967: real time    6.3186

 eigenvalue-minimisations  :    32
 total energy-change (2. order) : 0.4731725E-02  (-0.1527534E-02)
 number of electron      16.0000007 magnetization 
 augmentation part        1.3380638 magnetization 

 Broyden mixing:
  rms(total) = 0.22773E-01    rms(broyden)= 0.22768E-01
  rms(prec ) = 0.25857E-01
  weight for this iteration     100.00

 eigenvalues of (default mixing * dielectric matrix)
  average eigenvalue GAMMA=   1.4673
  2.4458  1.0201  1.0201  1.3833

 Free energy of the ion-electron system (eV)
  ---------------------------------------------------
  alpha Z        PSCENC =         0.33364503
  Ewald energy   TEWEN  =       456.06034496
  -Hartree energ DENC   =     -1306.54143290
  -exchange      EXHF   =         0.00000000
  -V(xc)+E(xc)   XCENC  =        70.86569858
  PAW double counting   =      1556.21294752    -1560.93715596
  entropy T*S    EENTRO =        -0.00000000
  eigenvalues    EBANDS =      -259.13955306
  atomic energy  EATOM  =      1024.75762730
  Solvation  Ediel_sol  =         0.00000000
  ---------------------------------------------------
  free energy    TOTEN  =       -18.38787853 eV

  energy without entropy =      -18.38787853  energy(sigma->0) =      -18.38787853


--------------------------------------------------------------------------------------------------------




--------------------------------------- Iteration      1(  10)  ---------------------------------------


    POTLOK:  cpu time    6.0409: real time    6.0589
    SETDIJ:  cpu time    0.0015: real time    0.0015
     EDDAV:  cpu time    0.0846: real time    0.0849
       DOS:  cpu time    0.0001: real time    0.0001
    CHARGE:  cpu time    0.1242: real time    0.1245
    MIXING:  cpu time    0.0061: real time    0.0061
    --------------------------------------------
      LOOP:  cpu time    6.2575: real time    6.2760

 eigenvalue-minimisations  :    24
 total energy-change (2. order) :-0.1739742E-02  (-0.5122010E-03)
 number of electron      16.0000007 magnetization 
 augmentation part        1.3398379 magnetization 

 Broyden mixing:
  rms(total) = 0.53684E-02    rms(broyden)= 0.53631E-02
  rms(prec ) = 0.85852E-02
  weight for this iteration     100.00

 eigenvalues of (default mixing * dielectric matrix)
  average eigenvalue GAMMA=   1.5639
  2.2658  2.1325  0.9817  0.9817  1.4581

 Free energy of the ion-electron system (eV)
  ---------------------------------------------------
  alpha Z        PSCENC =         0.33364503
  Ewald energy   TEWEN  =       456.06034496
  -Hartree energ DENC   =     -1306.11452410
  -exchange      EXHF   =         0.00000000
  -V(xc)+E(xc)   XCENC  =        70.83041240
  PAW double counting   =      1563.39174747    -1568.09255359
  entropy T*S    EENTRO =        -0.00000000
  eigenvalues    EBANDS =      -259.55631774
  atomic energy  EATOM  =      1024.75762730
  Solvation  Ediel_sol  =         0.00000000
  ---------------------------------------------------
  free energy    TOTEN  =       -18.38961827 eV

  energy without entropy =      -18.38961827  energy(sigma->0) =      -18.38961827


--------------------------------------------------------------------------------------------------------




--------------------------------------- Iteration      1(  11)  ---------------------------------------


    POTLOK:  cpu time    6.0419: real time    6.0606
    SETDIJ:  cpu time    0.0016: real time    0.0016
     EDDAV:  cpu time    0.0845: real time    0.0847
       DOS:  cpu time    0.0001: real time    0.0001
    CHARGE:  cpu time    0.1232: real time    0.1235
    MIXING:  cpu time    0.0064: real time    0.0064
    --------------------------------------------
      LOOP:  cpu time    6.2576: real time    6.2769

 eigenvalue-minimisations  :    24
 total energy-change (2. order) :-0.5186680E-02  (-0.6573374E-04)
 number of electron      16.0000007 magnetization 
 augmentation part        1.3396437 magnetization 

 Broyden mixing:
  rms(total) = 0.20122E-02    rms(broyden)= 0.20111E-02
  rms(prec ) = 0.45650E-02
  weight for this iteration     100.00

 eigenvalues of (default mixing * dielectric matrix)
  average eigenvalue GAMMA=   1.6507
  2.9832  2.4749  1.4431  0.9811  0.9811  1.0410

 Free energy of the ion-electron system (eV)
  ---------------------------------------------------
  alpha Z        PSCENC =         0.33364503
  Ewald energy   TEWEN  =       456.06034496
  -Hartree energ DENC   =     -1306.44452278
  -exchange      EXHF   =         0.00000000
  -V(xc)+E(xc)   XCENC  =        70.83296222
  PAW double counting   =      1560.74777016    -1565.44045717
  entropy T*S    EENTRO =        -0.00000000
  eigenvalues    EBANDS =      -259.24217468
  atomic energy  EATOM  =      1024.75762730
  Solvation  Ediel_sol  =         0.00000000
  ---------------------------------------------------
  free energy    TOTEN  =       -18.39480495 eV

  energy without entropy =      -18.39480495  energy(sigma->0) =      -18.39480495


--------------------------------------------------------------------------------------------------------




--------------------------------------- Iteration      1(  12)  ---------------------------------------


    POTLOK:  cpu time    6.0437: real time    6.0687
    SETDIJ:  cpu time    0.0017: real time    0.0017
     EDDAV:  cpu time    0.0844: real time    0.0846
       DOS:  cpu time    0.0001: real time    0.0001
    CHARGE:  cpu time    0.1243: real time    0.1246
    MIXING:  cpu time    0.0061: real time    0.0061
    --------------------------------------------
      LOOP:  cpu time    6.2602: real time    6.2858

 eigenvalue-minimisations  :    24
 total energy-change (2. order) :-0.5646707E-03  (-0.4334664E-04)
 number of electron      16.0000007 magnetization 
 augmentation part        1.3394883 magnetization 

 Broyden mixing:
  rms(total) = 0.14138E-02    rms(broyden)= 0.14136E-02
  rms(prec ) = 0.28676E-02
  weight for this iteration     100.00

 eigenvalues of (default mixing * dielectric matrix)
  average eigenvalue GAMMA=   1.9344
  4.1059  2.4928  2.4928  1.4812  0.9874  0.9874  0.9930

 Free energy of the ion-electron system (eV)
  ---------------------------------------------------
  alpha Z        PSCENC =         0.33364503
  Ewald energy   TEWEN  =       456.06034496
  -Hartree energ DENC   =     -1306.71300382
  -exchange      EXHF   =         0.00000000
  -V(xc)+E(xc)   XCENC  =        70.83903901
  PAW double counting   =      1560.31402390    -1565.00308933
  entropy T*S    EENTRO =        -0.00000000
  eigenvalues    EBANDS =      -258.98395667
  atomic energy  EATOM  =      1024.75762730
  Solvation  Ediel_sol  =         0.00000000
  ---------------------------------------------------
  free energy    TOTEN  =       -18.39536962 eV

  energy without entropy =      -18.39536962  energy(sigma->0) =      -18.39536962


--------------------------------------------------------------------------------------------------------




--------------------------------------- Iteration      1(  13)  ---------------------------------------


    POTLOK:  cpu time    6.0399: real time    6.0562
    SETDIJ:  cpu time    0.0016: real time    0.0016
     EDDAV:  cpu time    0.0841: real time    0.0842
       DOS:  cpu time    0.0001: real time    0.0001
    CHARGE:  cpu time    0.1243: real time    0.1246
    MIXING:  cpu time    0.0065: real time    0.0066
    --------------------------------------------
      LOOP:  cpu time    6.2564: real time    6.2734

 eigenvalue-minimisations  :    24
 total energy-change (2. order) :-0.3156030E-02  (-0.8031431E-04)
 number of electron      16.0000007 magnetization 
 augmentation part        1.3395751 magnetization 

 Broyden mixing:
  rms(total) = 0.82610E-03    rms(broyden)= 0.82598E-03
  rms(prec ) = 0.13380E-02
  weight for this iteration     100.00

 eigenvalues of (default mixing * dielectric matrix)
  average eigenvalue GAMMA=   1.9596
  4.8937  2.7506  2.4054  1.5099  0.9837  0.9837  0.9991  1.1509

 Free energy of the ion-electron system (eV)
  ---------------------------------------------------
  alpha Z        PSCENC =         0.33364503
  Ewald energy   TEWEN  =       456.06034496
  -Hartree energ DENC   =     -1306.95062748
  -exchange      EXHF   =         0.00000000
  -V(xc)+E(xc)   XCENC  =        70.84120357
  PAW double counting   =      1560.49675686    -1565.18866783
  entropy T*S    EENTRO =        -0.00000000
  eigenvalues    EBANDS =      -258.74880808
  atomic energy  EATOM  =      1024.75762730
  Solvation  Ediel_sol  =         0.00000000
  ---------------------------------------------------
  free energy    TOTEN  =       -18.39852565 eV

  energy without entropy =      -18.39852565  energy(sigma->0) =      -18.39852565


--------------------------------------------------------------------------------------------------------




--------------------------------------- Iteration      1(  14)  ---------------------------------------


    POTLOK:  cpu time    6.0517: real time    6.0701
    SETDIJ:  cpu time    0.0014: real time    0.0014
     EDDAV:  cpu time    0.0668: real time    0.0669
       DOS:  cpu time    0.0001: real time    0.0001
    CHARGE:  cpu time    0.1235: real time    0.1239
    MIXING:  cpu time    0.0063: real time    0.0063
    --------------------------------------------
      LOOP:  cpu time    6.2498: real time    6.2688

 eigenvalue-minimisations  :    16
 total energy-change (2. order) :-0.3754525E-03  (-0.3047695E-05)
 number of electron      16.0000007 magnetization 
 augmentation part        1.3394439 magnetization 

 Broyden mixing:
  rms(total) = 0.41761E-03    rms(broyden)= 0.41750E-03
  rms(prec ) = 0.81181E-03
  weight for this iteration     100.00

 eigenvalues of (default mixing * dielectric matrix)
  average eigenvalue GAMMA=   2.1321
  5.7858  3.1426  2.4222  2.4222  1.4912  0.9818  0.9818  1.0229  0.9382

 Free energy of the ion-electron system (eV)
  ---------------------------------------------------
  alpha Z        PSCENC =         0.33364503
  Ewald energy   TEWEN  =       456.06034496
  -Hartree energ DENC   =     -1306.94730005
  -exchange      EXHF   =         0.00000000
  -V(xc)+E(xc)   XCENC  =        70.84003331
  PAW double counting   =      1560.22841080    -1564.92071397
  entropy T*S    EENTRO =        -0.00000000
  eigenvalues    EBANDS =      -258.75094850
  atomic energy  EATOM  =      1024.75762730
  Solvation  Ediel_sol  =         0.00000000
  ---------------------------------------------------
  free energy    TOTEN  =       -18.39890110 eV

  energy without entropy =      -18.39890110  energy(sigma->0) =      -18.39890110


--------------------------------------------------------------------------------------------------------




--------------------------------------- Iteration      1(  15)  ---------------------------------------


    POTLOK:  cpu time    6.0443: real time    6.1008
    SETDIJ:  cpu time    0.0014: real time    0.0014
     EDDAV:  cpu time    0.0667: real time    0.0669
       DOS:  cpu time    0.0001: real time    0.0001
    CHARGE:  cpu time    0.1232: real time    0.1235
    MIXING:  cpu time    0.0076: real time    0.0076
    --------------------------------------------
      LOOP:  cpu time    6.2434: real time    6.3004

 eigenvalue-minimisations  :    16
 total energy-change (2. order) :-0.4862204E-03  (-0.5571327E-05)
 number of electron      16.0000007 magnetization 
 augmentation part        1.3394580 magnetization 

 Broyden mixing:
  rms(total) = 0.34027E-03    rms(broyden)= 0.34025E-03
  rms(prec ) = 0.46685E-03
  weight for this iteration     100.00

 eigenvalues of (default mixing * dielectric matrix)
  average eigenvalue GAMMA=   2.2029
  6.5163  3.6661  2.6653  2.3372  1.5850  1.3197  0.9849  0.9849  1.0349  0.9349

 Free energy of the ion-electron system (eV)
  ---------------------------------------------------
  alpha Z        PSCENC =         0.33364503
  Ewald energy   TEWEN  =       456.06034496
  -Hartree energ DENC   =     -1306.94000201
  -exchange      EXHF   =         0.00000000
  -V(xc)+E(xc)   XCENC  =        70.83820108
  PAW double counting   =      1560.43139492    -1565.12262238
  entropy T*S    EENTRO =        -0.00000000
  eigenvalues    EBANDS =      -258.75797623
  atomic energy  EATOM  =      1024.75762730
  Solvation  Ediel_sol  =         0.00000000
  ---------------------------------------------------
  free energy    TOTEN  =       -18.39938732 eV

  energy without entropy =      -18.39938732  energy(sigma->0) =      -18.39938732


--------------------------------------------------------------------------------------------------------




--------------------------------------- Iteration      1(  16)  ---------------------------------------


    POTLOK:  cpu time    6.0420: real time    6.0623
    SETDIJ:  cpu time    0.0016: real time    0.0016
     EDDAV:  cpu time    0.0673: real time    0.0675
       DOS:  cpu time    0.0001: real time    0.0001
    CHARGE:  cpu time    0.1230: real time    0.1233
    MIXING:  cpu time    0.0070: real time    0.0070
    --------------------------------------------
      LOOP:  cpu time    6.2411: real time    6.2619

 eigenvalue-minimisations  :    16
 total energy-change (2. order) :-0.1013174E-03  (-0.1957253E-05)
 number of electron      16.0000007 magnetization 
 augmentation part        1.3394657 magnetization 

 Broyden mixing:
  rms(total) = 0.14715E-03    rms(broyden)= 0.14713E-03
  rms(prec ) = 0.22908E-03
  weight for this iteration     100.00

 eigenvalues of (default mixing * dielectric matrix)
  average eigenvalue GAMMA=   2.3675
  7.7140  4.4380  2.9278  2.4314  2.1230  1.5126  0.9851  0.9851  1.0091  0.9584
  0.9584

 Free energy of the ion-electron system (eV)
  ---------------------------------------------------
  alpha Z        PSCENC =         0.33364503
  Ewald energy   TEWEN  =       456.06034496
  -Hartree energ DENC   =     -1306.95540603
  -exchange      EXHF   =         0.00000000
  -V(xc)+E(xc)   XCENC  =        70.83879832
  PAW double counting   =      1560.55644391    -1565.24772875
  entropy T*S    EENTRO =        -0.00000000
  eigenvalues    EBANDS =      -258.74321337
  atomic energy  EATOM  =      1024.75762730
  Solvation  Ediel_sol  =         0.00000000
  ---------------------------------------------------
  free energy    TOTEN  =       -18.39948864 eV

  energy without entropy =      -18.39948864  energy(sigma->0) =      -18.39948864


--------------------------------------------------------------------------------------------------------




--------------------------------------- Iteration      1(  17)  ---------------------------------------


    POTLOK:  cpu time    6.0895: real time    6.1075
    SETDIJ:  cpu time    0.0016: real time    0.0016
     EDDAV:  cpu time    0.0761: real time    0.0763
       DOS:  cpu time    0.0001: real time    0.0001
    --------------------------------------------
      LOOP:  cpu time    6.1673: real time    6.1856

 eigenvalue-minimisations  :    20
 total energy-change (2. order) :-0.6683943E-04  (-0.8047458E-06)
 number of electron      16.0000007 magnetization 
 augmentation part        1.3394657 magnetization 

 Free energy of the ion-electron system (eV)
  ---------------------------------------------------
  alpha Z        PSCENC =         0.33364503
  Ewald energy   TEWEN  =       456.06034496
  -Hartree energ DENC   =     -1306.95100270
  -exchange      EXHF   =         0.00000000
  -V(xc)+E(xc)   XCENC  =        70.83845004
  PAW double counting   =      1560.34448892    -1565.03585822
  entropy T*S    EENTRO =        -0.00000000
  eigenvalues    EBANDS =      -258.74725081
  atomic energy  EATOM  =      1024.75762730
  Solvation  Ediel_sol  =         0.00000000
  ---------------------------------------------------
  free energy    TOTEN  =       -18.39955548 eV

  energy without entropy =      -18.39955548  energy(sigma->0) =      -18.39955548


--------------------------------------------------------------------------------------------------------




 average (electrostatic) potential at core
  the test charge radii are     0.6991  0.7215
  (the norm of the test charge is              1.0000)
       1 -64.3000       2 -83.2428       3 -83.2428
 
 
 
 E-fermi :  -6.8252     XC(G=0):  -0.3498     alpha+bet : -0.0780


 k-point     1 :       0.0000    0.0000    0.0000
  band No.  band energies     occupation 
      1     -29.5254      2.00000
      2     -28.4929      2.00000
      3     -14.1369      2.00000
      4     -12.8945      2.00000
      5     -12.8314      2.00000
      6     -12.8314      2.00000
      7      -9.3305      2.00000
      8      -9.3305      2.00000
      9      -1.4566      0.00000
     10      -0.8908      0.00000
     11      -0.8908      0.00000
     12       0.0450      0.00000


--------------------------------------------------------------------------------------------------------


 soft charge-density along one line, spin component           1
         0         1         2         3         4         5         6         7         8         9
 total charge-density along one line
 
 pseudopotential strength for first ion, spin component:           1
 10.596  14.101  -0.000  -0.000   0.000   0.000   0.000  -0.000
 14.101  18.763  -0.000  -0.000   0.000   0.000   0.000  -0.000
 -0.000  -0.000  -4.536  -0.000   0.000   8.871   0.000  -0.000
 -0.000  -0.000  -0.000  -4.586  -0.000   0.000   8.951   0.000
  0.000   0.000   0.000  -0.000  -4.536  -0.000   0.000   8.871
  0.000   0.000   8.871   0.000  -0.000 -19.504  -0.000   0.000
  0.000   0.000   0.000   8.951   0.000  -0.000 -19.631  -0.000
 -0.000  -0.000  -0.000   0.000   8.871   0.000  -0.000 -19.504
 total augmentation occupancy for first ion, spin component:           1
 11.465  -5.808   0.000   0.000   0.000   0.000   0.000   0.000
 -5.808   3.146   0.000   0.000   0.000   0.000   0.000   0.000
  0.000   0.000   1.216  -0.000   0.000   0.079  -0.000   0.000
  0.000   0.000  -0.000   2.548   0.000   0.000   0.324  -0.000
  0.000   0.000   0.000   0.000   1.216   0.000   0.000   0.079
  0.000   0.000   0.079   0.000   0.000   0.005   0.000   0.000
  0.000   0.000  -0.000   0.324   0.000   0.000   0.049  -0.000
  0.000   0.000   0.000  -0.000   0.079   0.000  -0.000   0.005


------------------------ aborting loop because EDIFF is reached ----------------------------------------


    CHARGE:  cpu time    0.1237: real time    0.1240
    FORLOC:  cpu time    0.0082: real time    0.0082
    FORNL :  cpu time    0.0041: real time    0.0042
    STRESS:  cpu time    0.0328: real time    0.0330
    FORCOR:  cpu time    6.0631: real time    6.0787
    FORHAR:  cpu time    0.0478: real time    0.0479
    MIXING:  cpu time    0.0066: real time    0.0066
    OFIELD:  cpu time    0.0001: real time    0.0001

  FORCE on cell =-STRESS in cart. coord.  units (eV):
  Direction    XX          YY          ZZ          XY          YZ          ZX
  --------------------------------------------------------------------------------------
  Alpha Z     0.33365     0.33365     0.33365
  Ewald    -100.11269  -100.11269   656.28576     0.00000    -0.00000    -0.00000
  Hartree   321.93836   321.93836   663.06661    -0.00000    -0.00000    -0.00000
  E(xc)     -79.13785   -79.13785   -75.64128     0.00000     0.00000    -0.00000
  Local    -453.75158  -453.75158 -1481.08689    -0.00000    -0.00000     0.00000
  n-local   -47.99445   -47.99445   -53.63849    -0.00000     0.00000     0.00000
  augment    13.22952    13.22952    10.55408     0.00000    -0.00000     0.00000
  Kinetic   345.42292   345.42292   278.93620     0.00000    -0.00000    -0.00000
  Fock        0.00000     0.00000     0.00000     0.00000     0.00000     0.00000
  -------------------------------------------------------------------------------------
  Total      -0.07214    -0.07214    -1.19035     0.00000    -0.00000     0.00000
  in kB      -0.03605    -0.03605    -0.59486     0.00000    -0.00000     0.00000
  external pressure =       -0.22 kB  Pullay stress =        0.00 kB


 VOLUME and BASIS-vectors are now :
 -----------------------------------------------------------------------------
  energy-cutoff  :      500.00
  volume of cell :     3206.03
      direct lattice vectors                 reciprocal lattice vectors
    14.000000000  0.000000000  0.000000000     0.071428571  0.000000000  0.000000000
     0.000000000 14.000000000  0.000000000     0.000000000  0.071428571  0.000000000
     0.000000000  0.000000000 16.357316000     0.000000000  0.000000000  0.061134724

  length of vectors
    14.000000000 14.000000000 16.357316000     0.071428571  0.071428571  0.061134724


 FORCES acting on ions
    electron-ion (+dipol)            ewald-force                    non-local-force                 convergence-correction
 -----------------------------------------------------------------------------------------------
   0.243E-12 0.350E-11 0.874E-12   -.276E-17 -.938E-17 0.000E+00   0.000E+00 0.000E+00 0.000E+00   0.358E-13 0.176E-13 -.150E-13
   0.703E-12 0.343E-11 -.277E+03   -.278E-16 -.104E-16 0.341E+03   0.000E+00 0.000E+00 -.639E+02   0.422E-13 0.375E-14 -.252E-02
   0.710E-12 -.121E-11 0.277E+03   0.400E-17 0.459E-16 -.341E+03   0.000E+00 0.000E+00 0.639E+02   0.920E-13 0.762E-13 0.252E-02
 -----------------------------------------------------------------------------------------------
   0.166E-11 0.572E-11 0.298E-11   -.265E-16 0.261E-16 0.000E+00   0.000E+00 0.000E+00 0.000E+00   0.170E-12 0.975E-13 -.361E-13
 
 
 POSITION                                       TOTAL-FORCE (eV/Angst)
 -----------------------------------------------------------------------------------
      7.00000      7.00000      8.17866         0.000000     -0.000000     -0.000000
      7.00000      7.00000      9.35732        -0.000000      0.000000     -0.469344
      7.00000      7.00000      7.00000        -0.000000      0.000000      0.469344
 -----------------------------------------------------------------------------------
    total drift:                                0.000000      0.000000      0.000000


--------------------------------------------------------------------------------------------------------



  FREE ENERGIE OF THE ION-ELECTRON SYSTEM (eV)
  ---------------------------------------------------
  free  energy   TOTEN  =       -18.39955548 eV

  energy  without entropy=      -18.39955548  energy(sigma->0) =      -18.39955548
 


--------------------------------------------------------------------------------------------------------


 BEEFens 2000 ensemble energies
             -0.174094373856945E+02
             -0.618127529721768E+00
             -0.394102240196804E+01
              0.123503199253219E+02
             -0.614339876106916E+01
             -0.494883370762595E+01
             -0.119731147489359E+02
             -0.262787835756375E+02
             -0.113268988783091E+02
             -0.121336652033202E+02
             -0.989374156389405E+01
              0.878943982645735E+00
              0.653876044790913E+00
              0.425415010192879E+00
              0.941556461952572E+00
              0.132063133078765E+02
             -0.604453507390840E+01
             -0.448981280093307E+01
              0.583337852476194E+01
             -0.312991587858404E+02
              0.154748171238229E+02
             -0.651050496844934E+01
             -0.164365066805910E+01
             -0.300809405345268E+01
             -0.587516664618676E+00
             -0.180187549415111E+01
              0.250969673332045E+02
             -0.515352816394722E+01
             -0.247178062984952E+01
             -0.149621006012856E+02
              0.212720342051330E+02
             -0.313709170671700E+01
             -0.113301505787860E+02
              0.602006032627168E+01
             -0.884423962298925E+00
              0.636930181455878E+01
             -0.490778237742632E+00
              0.129930803327834E+01
              0.893126926473410E+01
             -0.288560865463810E+02
              0.156322544502532E+02
              0.329261903976105E+01
             -0.200113086479072E+01
             -0.904398416601769E+01
              0.340519827948155E+01
             -0.439599739916451E+01
              0.130611954739383E+02
              0.101978630110478E+02
             -0.700701827139190E+01
             -0.849375325928855E+01
             -0.844346054616409E+01
             -0.101257386357089E+02
              0.487061097741646E+01
             -0.144936417388533E+02
              0.394758801125263E+01
              0.170075605327608E+02
              0.194419608724420E+02
              0.954548767363758E+01
              0.495057140860072E+01
              0.823833411421947E+01
              0.254662098957760E+02
              0.576616653891176E+01
             -0.156371721452552E+02
             -0.354581446456135E+01
             -0.766882634231069E+01
              0.175901991971559E+02
             -0.214698394641006E+02
             -0.173809965533670E+02
             -0.828550010058334E+01
             -0.342282121679284E+01
             -0.121137348881741E+02
              0.774165808068629E+01
              0.344338902288882E+01
              0.363659365609328E+01
             -0.109555066056715E+02
             -0.988056185130435E+01
             -0.156818095887720E+02
              0.101076036803382E+02
             -0.892597109950484E+01
              0.809019775606054E+01
             -0.191859765778480E+01
             -0.864389117657637E+01
             -0.155447674230515E+02
             -0.451692138853278E+01
             -0.395402204104371E+01
             -0.432754739577805E+01
              0.112134382824282E+02
              0.203117635769831E+02
             -0.118920246997058E+02
             -0.225221628000733E+02
             -0.555919742272161E+01
              0.312853918418456E+02
             -0.158463391550286E+02
              0.910639120508957E+01
             -0.271823804441649E+01
             -0.177986868129335E+02
              0.775214357495054E+01
              0.985850208454742E+01
             -0.433365852977538E+01
              0.913616893424864E+01
             -0.777689868940342E+01
             -0.152880591040232E+02
              0.264339770323117E+02
              0.125915250581801E+02
              0.769449925619500E+01
              0.348864332694144E+01
              0.558092571511937E+01
              0.233515590197570E+02
             -0.752540671008817E+01
              0.118130071107549E+01
             -0.395212549301995E+02
              0.563393701791634E+01
             -0.192618530008819E+02
              0.376046348293058E+01
              0.590058272700436E+01
             -0.966681280816979E+01
             -0.148939316668369E+02
              0.137427591126931E+01
             -0.846540432480319E+01
              0.108115600254738E+02
             -0.132138813955146E+02
             -0.117299925991094E+01
             -0.105547955945227E+02
             -0.853801780450425E+00
              0.189796391660856E+00
              0.521797557220368E+01
              0.136097304623206E+00
             -0.205210976769106E+01
              0.176256246168774E+02
              0.256891451274019E+02
              0.135961488526811E+02
              0.207291646213152E+02
             -0.384858586617086E+01
              0.290313971192364E+01
              0.149185090655023E+02
             -0.826826765200231E+00
             -0.212485653171393E+02
             -0.115894138325409E+02
             -0.140253634661391E+02
             -0.827220991282399E+01
              0.770475714388084E+01
             -0.335748355308917E+02
             -0.408519762769767E+01
              0.122710269950962E+02
             -0.113823411971699E+02
             -0.932245865784981E+01
              0.151608586808066E+02
              0.131682396043952E+02
             -0.876152126040219E+01
              0.664135625447975E+01
             -0.714817387695642E+01
              0.104381701713003E+02
              0.202171742204011E+01
              0.431093814835850E+01
             -0.239903805499639E+02
             -0.136891879887807E+02
             -0.268221329617933E+01
             -0.395918459122472E+00
             -0.112468299514794E+02
              0.305055466556710E+02
             -0.460295280638667E+01
             -0.888339761801844E+01
              0.112095796492351E+02
             -0.131723666421046E+02
             -0.100259987903844E+02
              0.877176155323852E+01
              0.303172219546569E+01
              0.320989550185206E+01
              0.355348592958853E+01
             -0.314966809529110E+01
              0.431498993461072E+01
              0.165875253417895E+02
             -0.827434281289150E+01
              0.546391283907516E+01
              0.254156407519188E+02
              0.891385377281075E+01
             -0.146905474928633E+01
             -0.523426914350360E+01
              0.430854978264452E+02
             -0.585507657813637E+01
              0.106260458912820E+02
              0.725421168146235E+01
              0.908984837094143E+01
              0.259016247115830E+02
              0.136542477904330E+02
             -0.117500996527757E+01
              0.634251331950745E+01
              0.139594775958962E+02
              0.106378776343838E+02
             -0.162512128984349E+02
              0.264310914084514E+02
             -0.241258371696419E+02
             -0.430992009329932E+01
              0.161126024073752E+02
              0.292687139236251E+01
              0.133965820526700E+01
              0.875468926161711E+01
              0.587335808830598E+01
              0.945679512966056E+01
             -0.176134904055589E+02
              0.105305478935696E+01
             -0.714562802755464E+01
             -0.202059693549936E+01
             -0.395171594347175E+00
             -0.289874420124749E+01
             -0.154735742053744E+01
              0.237068323642622E+02
             -0.183099492308423E+01
             -0.821356069896658E+01
             -0.804704049193187E+00
              0.376552458974326E+01
             -0.170743803363369E+02
             -0.133515938907855E+02
             -0.981144788304525E+01
             -0.175619292253012E+02
             -0.495406008161427E+01
             -0.116596459154326E+02
              0.509969736405932E+01
             -0.180117037024342E+00
             -0.331103667118462E+01
             -0.245560562874712E+01
              0.184524354574609E+01
             -0.579196279015274E+01
              0.184117340888842E+02
             -0.236232964114416E+02
             -0.363985709120586E+01
             -0.451313038397242E+01
              0.482289126735219E+01
              0.537452966073346E+01
             -0.137632243298522E+02
             -0.427910676956211E+01
              0.124646772609531E+02
             -0.666397214771762E+01
              0.403950876302041E+01
              0.103717224016307E+02
             -0.330640803106292E+00
              0.323081717621765E+02
             -0.469701941961492E+01
             -0.100148703347195E+02
              0.725520806939898E+00
             -0.738692302249413E+01
              0.146424105280853E+02
             -0.117679782415761E+02
              0.343088999324729E+01
              0.155816627153171E+02
             -0.390384479262195E+01
              0.332978776890723E+02
              0.355777970433130E+02
             -0.196089470871385E+02
              0.161145810577257E+02
              0.539985270935910E+01
             -0.151321451386025E+02
              0.566720703087891E+01
              0.108419832732854E+02
              0.117200042758375E+02
              0.115874165892498E+01
              0.454507025527496E+01
              0.202481214003060E+02
             -0.650535002605649E+01
              0.342886619985750E+01
              0.198986641788614E+02
             -0.103017509543515E+02
             -0.529793717204772E+01
              0.155587034448468E+02
              0.846996689656413E+01
              0.217472718401187E+02
              0.819936323227471E+01
              0.282555721700220E+01
              0.711034351800287E+01
              0.115232256399555E+02
             -0.135764164000087E+02
              0.124834278075521E+01
              0.559738015295569E+01
              0.274933999716797E+01
              0.641991170149262E+01
             -0.169627696841660E+02
              0.962587828095539E+01
             -0.122885502683782E+02
             -0.890181583087937E+01
              0.481966076689978E+01
             -0.372265052615664E+01
              0.159355620612531E+02
             -0.595195926213533E+01
              0.767211457150627E+01
              0.887528222041558E+01
              0.223450121765628E+02
              0.153426997797627E+02
              0.140830158087205E+02
             -0.238473743088994E+01
             -0.212074350119427E+01
             -0.877505906192968E+01
              0.220743796455884E+02
              0.229010792371823E+02
              0.104269789474655E+02
             -0.688656325826504E+01
              0.140940377300822E+02
             -0.206279855570072E+01
              0.581678148013184E+01
              0.185479411357826E+02
             -0.412575599494417E+00
             -0.301235592473164E+01
             -0.718477776022132E+01
             -0.157585652151453E+02
              0.269375494306599E+02
              0.129755733475036E+02
             -0.169546575070007E+02
             -0.472941940369900E+01
              0.718447134197185E+01
             -0.333806877245291E+01
              0.175954815232737E+02
              0.437603506348771E+01
              0.224547223168049E+02
              0.770718853394573E+01
             -0.724689540702747E+01
              0.597548056473524E+01
             -0.166040896451452E+01
             -0.803801422418979E+01
              0.454556557068038E+01
              0.540373828163942E+01
              0.251825579233755E+02
              0.217123170862285E+02
              0.156212661005795E+02
              0.199365935982871E+02
              0.206615100789458E+01
             -0.767556818888733E+01
              0.391512647869693E+01
             -0.979800146819920E+01
             -0.147242539101185E+02
             -0.161748942256279E+02
             -0.828158367686355E+01
             -0.306903426292981E+02
             -0.926865878522913E+01
             -0.239331599183031E+02
              0.538581459744741E+01
             -0.130765568438475E+02
              0.127712279169027E+02
             -0.267057623508011E+02
             -0.864040712575453E+01
              0.131063396963380E+02
              0.606078411542858E+01
             -0.242551985611974E+02
              0.162978771575505E+02
             -0.766941312646534E+01
              0.151260395891347E+02
             -0.794211672686053E+01
             -0.215726672208867E+02
              0.439163762288128E+01
             -0.178247948481612E+02
             -0.294061121177191E+01
             -0.110090341069006E+00
              0.120087326325475E+02
              0.352616980887707E+02
             -0.126246975292549E+02
             -0.104022215146782E+02
             -0.119784898460445E+01
             -0.307152402240787E+01
             -0.225774941545774E+02
             -0.164548527879019E+02
              0.146140349781654E+02
             -0.638917570954659E+01
              0.514361256362480E+01
             -0.137507529434108E+02
             -0.384224699051383E+01
             -0.119037596267684E+02
              0.142924835522057E+02
              0.438057790114703E+01
             -0.677305615511764E+01
             -0.404201761926473E+01
              0.298544523313444E+01
             -0.226028991432747E+01
              0.115450875774651E+02
             -0.740763227027256E+01
              0.176892818825181E+01
              0.928584378931014E+01
              0.432755951462190E+01
             -0.558619066473138E+01
              0.437589546774078E+02
              0.157539839977331E+02
              0.181698397563499E+01
              0.258653962792110E+01
             -0.170945208408196E+02
              0.890304500123486E+01
             -0.209174361420929E+02
             -0.841341498429057E+01
             -0.161726889233248E+02
             -0.528317697376376E+01
              0.161850014605885E+02
             -0.159318346483218E+02
              0.583686577286065E+01
             -0.103760822110297E+01
              0.716964305437628E+00
             -0.100934910569344E+02
             -0.122031218916476E+02
             -0.119135650218874E+01
             -0.110421197475209E+02
             -0.647636502580279E+01
             -0.112702530368294E+02
             -0.215665639356236E+01
             -0.930662220188064E+01
             -0.140476996277187E+02
              0.657083692664036E+01
             -0.459395863286228E+01
              0.584375997614578E+01
              0.287382764435646E+01
             -0.207260826730875E+02
             -0.149651782018001E+02
             -0.125072784599688E+02
              0.977503228342653E+01
             -0.708140464488963E+00
             -0.176738222306701E+02
              0.160194145143008E+02
             -0.118498625668576E+02
              0.154977229592185E+02
             -0.831577948516280E+01
             -0.134996641906395E+02
              0.771747214552155E+01
             -0.197085902066799E+02
             -0.998292964711452E+01
              0.178923796234965E+02
              0.581737437951242E+01
             -0.108854130266761E+02
              0.151292256097339E+02
             -0.465593021312347E+01
             -0.979651189528894E+01
             -0.863316381508891E+01
             -0.144327475167411E+02
              0.676962736764617E+01
             -0.252272558311514E+02
             -0.227812173886289E+02
             -0.187967446668182E+01
             -0.822612590951336E+01
             -0.165367064468319E+02
              0.208006592007031E+02
              0.378285720535028E+02
             -0.802058285809305E+01
             -0.617543680730620E+00
             -0.178653094561892E+02
              0.182992582056468E+02
              0.559726394602072E+01
             -0.515063939122626E+01
             -0.108888160115817E+02
              0.403757921716184E+01
             -0.169870002477229E+02
             -0.404818144667641E+01
             -0.250231581426307E+02
              0.921528706235208E+01
              0.429610386604138E+01
             -0.592268283927751E+00
             -0.235135305896449E+01
             -0.102812617833885E+02
             -0.296659217977880E+01
              0.371235046387553E+02
             -0.471360416316384E+01
             -0.129677973312644E+02
             -0.190585805570506E+02
              0.362892499121536E+01
             -0.100236115213677E+02
              0.203892747455329E+01
              0.858162974653772E+01
              0.181912521309160E+01
              0.922102835138352E+01
              0.436508688606670E+01
              0.169969964047462E+02
              0.811390375628605E+01
             -0.962615652705972E+01
              0.125751344365819E+02
              0.101249870930632E+02
              0.351226907046014E+01
              0.118762164974750E+02
             -0.725983192387287E+01
              0.204832379293939E+02
              0.584485667663153E+01
             -0.888984790186319E+01
             -0.200850879975213E+01
             -0.481819152875437E+01
              0.565840744491652E+01
             -0.742595866562220E+01
             -0.165293448636998E+01
             -0.310116103476577E+01
              0.227157336216284E+02
              0.155698541557179E+02
             -0.191304630066774E+02
             -0.154184279284407E+01
             -0.149861189780971E+02
             -0.416281816444057E+01
             -0.666502040729105E+01
              0.226393228683615E+01
             -0.704875339810600E+00
             -0.750849332632874E+01
              0.328454875807963E+01
             -0.227061743436439E+01
             -0.300751543644502E+01
              0.242826733673691E+02
              0.486302973832275E+01
             -0.227906941068976E+02
             -0.121282433400444E+02
              0.261974126476936E+02
              0.688578929990283E+01
             -0.248368924525994E+01
              0.304058655377759E+02
             -0.538512397037729E+01
[...]
             -0.126436736802233E+02
              0.958481044811204E+01
              0.473095743885978E+00
              0.871032620620652E+01
              0.441461420852488E+01
              0.174279715702542E+02
             -0.220732580375709E+02
             -0.136117479635750E+02
             -0.259432938805347E+01
             -0.237700708790217E+02
              0.475588323735388E+01
              0.112501516891935E+02
              0.286419587308544E+01
             -0.625451682174656E+01
              0.663731927780995E+01
              0.390251099800603E+02
              0.794506922605709E+01
              0.434947748320170E+01
             -0.135770255672769E+02
             -0.176333499265457E+02
             -0.465549425224990E+01
              0.828267177159637E+01
             -0.154280202117619E+01
              0.636823350750496E+01
              0.974223898141142E+01
             -0.174552468944043E+02
              0.717140917009243E+01
              0.129524086828224E+02
              0.161830761738742E+02
             -0.215973238756493E+01
              0.257509686461333E+00
             -0.231002295268019E+01
             -0.133439025151095E+02
             -0.199958764159313E+02
              0.221747763297758E+02
             -0.212709427760969E+01
             -0.159534611341432E+02
              0.105308210241702E+01
             -0.745641084717994E+01
              0.250872056472664E+02
             -0.615347753181914E+01
             -0.101525008734376E+02
              0.971873879828124E+01
             -0.393752310786911E+01
              0.122845140708827E+02
             -0.619852188549146E+00
              0.273930404806486E+02
              0.136747915613531E+02
              0.924591437069624E+00
             -0.101833069865070E+02
              0.726156737473787E+01
             -0.152669531724664E+02
             -0.227074963859548E+01
              0.177036936249290E+02
             -0.743554554370708E+01
             -0.124861080965216E+02
             -0.598139025035302E+01
              0.147218866253839E+02
              0.356892370372945E+01
             -0.235273276778102E+02
              0.931888766927540E+01
              0.353943569647855E+01
              0.240070704922412E+01
             -0.140354058583625E+02
              0.139633751290995E+01
              0.971705064350233E+01
              0.141289222713980E+02
              0.176996491272757E+02
              0.849145763051402E+01
              0.144661643842710E+01
             -0.146300956706745E+02
             -0.127393643062438E+02
             -0.199582159328667E+02
             -0.266096947538225E+01
              0.946846877421970E+01
             -0.817743372465955E+00
              0.151721473768324E+02
             -0.891669314675198E+01
              0.481379001713611E+01
             -0.477527614340249E+01
             -0.770933593047405E+01
              0.163347270884148E+02
              0.193619790960716E+01
              0.170081999159892E+02
              0.147447099252469E+01
              0.662762142328788E+01
             -0.465488836487518E+01
              0.168514483584980E+02
             -0.353616850910921E+01
             -0.214524578523005E+00
             -0.220573311843327E+02
             -0.282060227998723E+01
              0.200990980290794E+02
              0.190527537889842E+02
              0.658141323051785E+01
             -0.357030462450513E+01
              0.819530925522777E+00
             -0.556750587254865E+01
             -0.261907677995401E+01
              0.249075099473834E+02
              0.108670052988870E+01
             -0.675779776386543E+01
             -0.307150835543073E+02
             -0.141916266671962E+02
             -0.105512875865637E+02
             -0.179267699528749E+02
             -0.163866275255430E+02
             -0.200173804125005E+02
             -0.126660558967192E+02
             -0.984757984052035E+01
             -0.127585112076209E+02
              0.129503868648324E+02
             -0.681037665202663E+01
             -0.267972289835227E+02
              0.120412477352958E+02
             -0.872704536629010E+01
             -0.222103015168164E+02
              0.278252676445140E+02
             -0.653782501145559E+01
              0.540368993210629E+01
              0.118111452846843E+02
              0.157120536506157E+01
              0.686857588031269E+01
              0.462145020991365E+00
              0.906431863398556E-01
             -0.378665663496943E+01
             -0.202367806309872E+02
              0.323044460705722E+01
             -0.354909834219961E+02
              0.186540626551148E+02
             -0.117198557464708E+02
             -0.431971477577649E+01
             -0.496676244190834E+01
              0.433967999160799E+01
             -0.557093321203441E+01
              0.838797988104604E+01
             -0.153885473483832E+02
              0.107999289929187E+02
              0.111598854837816E+02
              0.401057544314130E+01
              0.259683076283535E+01
              0.576199766226731E+01
              0.193837141729067E+01
              0.904932066170171E+01
             -0.197210009096229E+01
             -0.182154792524058E+02
              0.267740446627823E+01
             -0.775471623152839E+01
             -0.505033880450668E+00
              0.145217860430257E+02
             -0.231601377282815E+02
              0.283086060139595E+00
              0.521927456349246E+00
              0.261838502342013E+01
              0.886519523761364E+01
             -0.384436833481820E+01
              0.236862372830541E+02
              0.121664905725316E+02
             -0.462542948885894E+01
             -0.294776661429471E+01
              0.977892250083059E+00
              0.221934533113603E+02
             -0.149400051275147E+02
             -0.291167879043365E+02
              0.837873579320849E+01
             -0.282126455923811E+01
             -0.397492028040742E+01
              0.480266547262826E+01
              0.217139178204000E+02
              0.124487664955771E+02
             -0.492998635854289E+01
             -0.145988988399998E+02
             -0.254258969988226E+01
              0.815311521097261E+01
             -0.410344986775871E+01
             -0.212125578030982E+02
             -0.156524014715695E+01
             -0.261940349037513E+02
             -0.135817828416898E+02
              0.231523672258129E+02
             -0.141962675539158E+02
             -0.190653810240887E+02
             -0.151657909117429E+02
             -0.105166517878682E+02
              0.946701847954398E+01
              0.234345234990311E+02
             -0.181600391179532E+01
              0.772851695399891E+01
             -0.503829714037074E+01
             -0.190041915365828E+02
              0.144313101979431E+02
             -0.130705365269486E+02
              0.825627720509131E+01
              0.923464831113613E+01
             -0.320742442827036E+01
              0.112973570802634E+02
              0.116059929667276E+02
              0.311978942019933E+02
             -0.402651550239275E+01
             -0.139333213677920E+02
             -0.183148842528738E+02
             -0.418908091229880E+01
             -0.915412948584750E+01
              0.281064203608566E+02
             -0.130059424182514E+02
              0.252027938223376E+01
              0.174122322596911E+01
             -0.653106434785993E+01
             -0.230033904454333E+02
             -0.199064030777006E+01
              0.279374318527036E+02
              0.412613180782513E+01
              0.219517497463431E+01
             -0.150893039341591E+02
             -0.158144284726206E+02
             -0.320242222267600E+01
              0.133457708893323E+02
             -0.696136306478120E+01
              0.293301809017232E+02
             -0.123737910952125E+02
              0.463305382689114E+01
             -0.549666071606728E+01
             -0.184507921453053E+02
              0.130344733998180E+01
             -0.152353728328255E+02
             -0.209545396489223E+02
              0.209177126053004E+01
              0.404544139416593E+00
              0.138291006662473E+02
              0.646868671233174E+01
             -0.966544452720656E+01
              0.658869857325911E+01
             -0.234124636339500E+02
             -0.142433248606627E+02
              0.261760295789464E+02
              0.234255373098126E+01
             -0.337979683968439E+01
             -0.822756933253113E+01
             -0.222346681628096E+00
             -0.242518559444849E+01
              0.246150684915346E+02
              0.116237370848300E+02
             -0.357021777546777E+01
             -0.179765263107711E+01
             -0.114223906746383E+02
             -0.476153483897957E+01
             -0.183136102836615E+02
              0.140660550792101E+02
              0.189029171129985E+01
              0.330643053289705E+01
              0.442529526105686E+01
             -0.240047603237445E+01
             -0.556750625603828E+01
              0.225362106512593E+00
             -0.297528213475157E+02
             -0.453712863252116E+01
             -0.223498832917343E+01
             -0.214649793587667E+01
              0.149412353424769E+02
              0.175784179237611E+02
              0.465323293652963E+01
             -0.265595235345852E+02
              0.182057542996340E+02
             -0.659707694824544E+01
             -0.104508159541519E+02
             -0.243719294395319E+02
             -0.948523241681976E+01
              0.164171704182629E+02
              0.838585448740713E+01
              0.374840661783500E+01
              0.889235442997271E+01
             -0.156600309070837E+02
             -0.125881344178697E+02
              0.166172617941548E+02
              0.114079311922457E+02
              0.140114252726117E+02
              0.640115867549248E+00
              0.255465396029359E+01
              0.152887004696561E+02
              0.277742123632024E+02
             -0.685827880395154E+01
              0.103038734819175E+02
             -0.516642250867827E+01
             -0.119670437016128E+02
             -0.929322259580087E+01
             -0.853371373285898E+01
             -0.376575679603184E+01
             -0.140131414953003E+02
             -0.617136262811692E+01
             -0.377885494265812E+02
              0.957739272198839E+01
              0.703169670522779E+01
             -0.715104647937121E+00
             -0.106321528806314E+02
             -0.570434317899803E+01
             -0.151128803281744E+02
              0.299014455590225E+01
              0.227475248450748E+02
             -0.572548812508555E+01
             -0.508008251275521E+01
              0.551159307819071E+01
             -0.139307765269398E+02
              0.248676048701338E+02
              0.472424180356191E+01
              0.374127499245571E+01
              0.146546147507521E+02
             -0.356565647567351E+00
              0.161194083461302E+02
              0.476725014105446E+01
             -0.210053821738865E+01
              0.333975192358387E+01
             -0.145731161094183E+01
              0.201636639420553E+02
              0.241530712980817E+01
              0.481426776097923E+01
             -0.278267275831033E+01
              0.315130566786910E+01
             -0.261715835063744E+02
             -0.100509403419550E+02
             -0.132324528237045E+02
              0.146246118768232E+02
             -0.922983481171332E+01
             -0.171979226798432E+02
              0.160922534108495E+02
             -0.391526315971229E+01
              0.124289883268048E+02
             -0.253380567489606E+02
              0.650938778300850E+01
              0.169903417472500E+01
              0.152249947305063E+01
             -0.288505773959469E+01
             -0.181923684778005E+01
              0.138638548628422E+02
              0.632551963455100E+00
             -0.138295073018450E+02
             -0.563227143592379E+01
              0.647497409708441E+01
             -0.332475117593420E+02
             -0.257717637698769E+02
              0.662932094209751E+00
              0.363866657827164E+01
             -0.132008883584973E+02
             -0.529483667321500E+00
              0.304566815487595E+02
              0.890417065161523E+01
             -0.158876309681271E+02
              0.221556199602568E+01
             -0.263831425662054E+01
              0.343901303797898E+01
             -0.963606200719055E+01
              0.573536761445432E+01
              0.714043441411610E+01
             -0.180091426511159E+01
              0.311325716426774E+02
             -0.267925748579133E+01
             -0.887063449488147E+01
              0.650637117856300E+01
              0.125056428791991E+02
             -0.994057444130242E+01
             -0.426463798875767E+00
              0.275368089186827E+02
             -0.776642509953462E+00
              0.153642775376632E+02
              0.443851937579439E+01
             -0.246309587441851E+01
             -0.605178533231705E+01
              0.147379560693038E+02
             -0.157449810577553E+02
             -0.890585507915112E+00
             -0.511029295698791E+01
             -0.118157310704200E+02
              0.381942882961102E+01
              0.661119398733119E+01
              0.126945560769789E+01
             -0.484628529041146E+00
             -0.110222024247744E+02
              0.499904028697065E+01
             -0.105677704190361E+01
             -0.665069401814275E+01
             -0.599591049778470E+01
              0.576807582902994E+01
             -0.990416952310824E+00
             -0.105273525539813E+02
             -0.299474511833465E+02
              0.169849283193827E+01
              0.593458406276920E+01
             -0.122785053779140E+02
             -0.660384443291741E+01
              0.229858584550411E+02
              0.248562724059677E+01
              0.105130420185430E+02
              0.190812266257107E+01
              0.100144139024514E+02
              0.996221206873571E+00
             -0.110619328129826E+02
             -0.151396980445386E+01
              0.211122237320446E+01
              0.785020086323094E+01
              0.219852915457113E+02
              0.139647524310536E+02
              0.357778618887210E+00
              0.363210166617773E+01
              0.172618625948447E+02
              0.729626169623287E+01
             -0.207895622552512E+02
             -0.779904570490463E+01
              0.415710397875939E+01
              0.235189526572225E+01
              0.711419756151369E+01
             -0.150182341099641E+02
              0.209466361110751E+01
              0.110022360209950E+02
              0.138344005599701E+02
             -0.120955593604034E+02
             -0.841615769676409E+00
             -0.569395862683493E+00
             -0.495404429943736E+01
             -0.850481580391620E+01
             -0.455493895932882E+01
             -0.172568818805093E+01
              0.264049535489663E+01
              0.117520512059768E+02
             -0.870715201429969E+01
              0.231284746587365E+02
              0.938457674463687E+01
              0.677109144198560E+01
              0.101561652173085E+02
              0.820133505939518E+01
              0.938094475639313E+01
              0.154807519209435E+02
             -0.129956338279750E+02
              0.177993358304672E+02
             -0.316688008558076E+02
              0.882469294921362E+01
             -0.298311988543302E+02
              0.230886671664568E+02
              0.210736636228881E+02
             -0.266249018985357E+01
             -0.136951578629710E+02
             -0.121421900353856E+02
             -0.164047955479765E+02
             -0.181565109921636E+02
              0.154183211683471E+02
              0.119351686757256E+02
              0.677247861522357E+01
              0.897112243071504E+01
              0.113905714750922E+02
             -0.112438060591057E+02
             -0.470716592272399E+01
              0.159559050680783E+02
             -0.342591391484657E+01
              0.144968574658804E+02
              0.208626164141761E+02
             -0.103769018220281E+01
             -0.207248791565754E+02
              0.684206716345329E+00
              0.325043848597208E+00
             -0.264049127313430E+01
              0.400930956338613E+00
             -0.186760279023384E+02
             -0.436101560347229E+01
              0.299400925777092E+01
              0.298506043900051E+01
              0.136102432680122E+02
             -0.110939044759248E+02
              0.169603686452801E+02
             -0.113151737870878E+02
              0.666187946584566E+01
              0.114270649650177E+02
 BEEF xc energy contributions
           1 :   -206.866603285120     
           2 :    176.569448846224     
           3 :   -133.800805295920     
           4 :    94.0883381739236     
           5 :   -63.4282165990943     
           6 :    42.1761158129344     
           7 :   -28.4186069403647     
           8 :    19.7917414859818     
           9 :   -14.0873797615683     
          10 :    9.78268899535569     
          11 :   -6.20414445613349     
          12 :    3.07736711462880     
          13 :  -0.240208891664275     
          14 :   -2.21100605601652     
          15 :    4.04181623729555     
          16 :   -5.12540191937532     
          17 :    5.51914421336664     
          18 :   -5.46399995411895     
          19 :    5.24246701351773     
          20 :   -5.06412953194689     
          21 :    5.00368745421963     
          22 :   -4.98655848129498     
          23 :    4.87736534773318     
          24 :   -4.56771486020521     
          25 :    4.04091017853596     
          26 :   -3.36967381514585     
          27 :    2.67739566202396     
          28 :   -2.07277943144946     
          29 :    1.60555219448368     
          30 :   -1.25930214733468     
          31 :   -25.6939138801642     
          32 :   -17.0673425411626     
    POTLOK:  cpu time    9.7657: real time    9.7930


--------------------------------------------------------------------------------------------------------


 stress matrix after NEB project (eV)
     -0.02973      0.00000      0.00000
      0.00000     -0.02973     -0.00000
      0.00000     -0.00000     -0.07497
  FORCES: max atom, RMS     0.009693    0.007914
  FORCE total and by dimension    0.013708    0.009693
  Stress total and by dimension    0.085955    0.074969


--------------------------------------------------------------------------------------------------------


  
 reached required accuracy - stopping structural energy minimisation
 writing wavefunctions
     LOOP+:  cpu time   47.3714: real time   47.6412
    4ORBIT:  cpu time    0.0000: real time    0.0000

 total amount of memory used by VASP MPI-rank0    69523. kBytes
=======================================================================

   base      :      30000. kBytes
   nonl-proj :       1432. kBytes
   fftplans  :      14454. kBytes
   grid      :      23243. kBytes
   one-center:          3. kBytes
   wavefun   :        391. kBytes
 
  
  
 General timing and accounting informations for this job:
 ========================================================
  
                  Total CPU time used (sec):      210.309
                            User time (sec):      204.789
                          System time (sec):        5.521
                         Elapsed time (sec):      213.854
  
                   Maximum memory used (kb):      374660.
                   Average memory used (kb):           0.
  
                          Minor page faults:       390859
                          Major page faults:          174
                 Voluntary context switches:        16636
