<?xml version="1.0" encoding="ISO-8859-1"?>
<modeling>
 <generator>
  <i name="program" type="string">vasp </i>
  <i name="version" type="string">5.4.4.18Apr17-6-g9f103f2a35  </i>
  <i name="subversion" type="string">(build Feb 25 2019 10:51:38) complex            parallel </i>
  <i name="platform" type="string">LinuxIFC </i>
  <i name="date" type="string">2021 12 16 </i>
  <i name="time" type="string">09:11:02 </i>
 </generator>
 <incar>
  <i type="int" name="ISTART">     1</i>
  <i type="string" name="PREC">accurate</i>
  <i type="string" name="ALGO"> Normal</i>
  <i type="int" name="NELM">   350</i>
  <i type="int" name="IBRION">     2</i>
  <i name="EDIFF">      0.00010000</i>
  <i name="EDIFFG">     -0.02500000</i>
  <i type="int" name="NSW">   200</i>
  <i name="ENCUT">    500.00000000</i>
  <i type="int" name="ISMEAR">    -1</i>
  <i name="SIGMA">      0.10000000</i>
  <i type="logical" name="LBEEFENS"> T  </i>
  <v type="int" name="KPOINT_BSE">    -1     0     0     0</v>
  <i type="int" name="NELM">   350</i>
  <i type="string" name="GGA"> BF</i>
  <i type="logical" name="LUSE_VDW"> T  </i>
  <i name="Zab_VDW">     -1.88670000</i>
  <i type="logical" name="LDIPOL"> F  </i>
 </incar>
 <structure name="primitive_cell" >
  <crystal>
   <varray name="basis" >
    <v>      14.00000000       0.00000000       0.00000000 </v>
    <v>       0.00000000      14.00000000       0.00000000 </v>
    <v>       0.00000000       0.00000000      16.35731600 </v>
   </varray>
   <i name="volume">   3206.03393600 </i>
   <varray name="rec_basis" >
    <v>       0.07142857       0.00000000       0.00000000 </v>
    <v>       0.00000000       0.07142857       0.00000000 </v>
    <v>       0.00000000       0.00000000       0.06113472 </v>
   </varray>
  </crystal>
  <varray name="positions" >
   <v>      -0.50000000      -0.50000000      -0.50000000 </v>
   <v>      -0.50000000      -0.50000000      -0.42794307 </v>
   <v>      -0.50000000      -0.50000000       0.42794307 </v>
  </varray>
 </structure>
 <varray name="primitive_index" >
  <v type="int" >        1 </v>
  <v type="int" >        2 </v>
  <v type="int" >        3 </v>
 </varray>
 <kpoints>
  <generation param="Monkhorst-Pack">
   <v type="int" name="divisions">       1        1        1 </v>
   <v name="usershift">      0.00000000       0.00000000       0.00000000 </v>
   <v name="genvec1">      1.00000000       0.00000000       0.00000000 </v>
   <v name="genvec2">      0.00000000       1.00000000       0.00000000 </v>
   <v name="genvec3">      0.00000000       0.00000000       1.00000000 </v>
   <v name="shift">      0.00000000       0.00000000       0.00000000 </v>
  </generation>
  <varray name="kpointlist" >
   <v>       0.00000000       0.00000000       0.00000000 </v>
  </varray>
  <varray name="weights" >
   <v>       1.00000000 </v>
  </varray>
 </kpoints>
 <parameters>
  <separator name="general" >
   <i type="string" name="SYSTEM">unknown system</i>
   <i type="logical" name="LCOMPAT"> F  </i>
  </separator>
  <separator name="electronic" >
   <i type="string" name="PREC">accura</i>
   <i name="ENMAX">    500.00000000</i>
   <i name="ENAUG">    644.87300000</i>
   <i name="EDIFF">      0.00010000</i>
   <i type="int" name="IALGO">    38</i>
   <i type="int" name="IWAVPR">    11</i>
   <i type="int" name="NBANDS">    12</i>
   <i name="NELECT">     16.00000000</i>
   <i type="int" name="TURBO">     0</i>
   <i type="int" name="IRESTART">     0</i>
   <i type="int" name="NREBOOT">     0</i>
   <i type="int" name="NMIN">     0</i>
   <i name="EREF">      0.00000000</i>
   <separator name="electronic smearing" >
    <i type="int" name="ISMEAR">    -1</i>
    <i name="SIGMA">      0.10000000</i>
    <i name="KSPACING">      0.50000000</i>
    <i type="logical" name="KGAMMA"> T  </i>
   </separator>
   <separator name="electronic projectors" >
    <i type="logical" name="LREAL"> F  </i>
    <v name="ROPT">      0.00000000      0.00000000</v>
    <i type="int" name="LMAXPAW">  -100</i>
    <i type="int" name="LMAXMIX">     2</i>
    <i type="logical" name="NLSPLINE"> F  </i>
   </separator>
   <separator name="electronic startup" >
    <i type="int" name="ISTART">     0</i>
    <i type="int" name="ICHARG">     2</i>
    <i type="int" name="INIWAV">     1</i>
   </separator>
   <separator name="electronic spin" >
    <i type="int" name="ISPIN">     1</i>
    <i type="logical" name="LNONCOLLINEAR"> F  </i>
    <v name="MAGMOM">      1.00000000      1.00000000      1.00000000</v>
    <i name="NUPDOWN">     -1.00000000</i>
    <i type="logical" name="LSORBIT"> F  </i>
    <v name="SAXIS">      0.00000000      0.00000000      1.00000000</v>
    <i type="logical" name="LSPIRAL"> F  </i>
    <v name="QSPIRAL">      0.00000000      0.00000000      0.00000000</v>
    <i type="logical" name="LZEROZ"> F  </i>
   </separator>
   <separator name="electronic exchange-correlation" >
    <i type="logical" name="LASPH"> F  </i>
    <i type="logical" name="LMETAGGA"> F  </i>
   </separator>
   <separator name="electronic convergence" >
    <i type="int" name="NELM">   350</i>
    <i type="int" name="NELMDL">     0</i>
    <i type="int" name="NELMIN">     2</i>
    <i name="ENINI">    500.00000000</i>
    <separator name="electronic convergence detail" >
     <i type="logical" name="LDIAG"> T  </i>
     <i type="logical" name="LSUBROT"> F  </i>
     <i name="WEIMIN">      0.00100000</i>
     <i name="EBREAK">      0.00000208</i>
     <i name="DEPER">      0.30000000</i>
     <i type="int" name="NRMM">     4</i>
     <i name="TIME">      0.40000000</i>
    </separator>
   </separator>
   <separator name="electronic mixer" >
    <i name="AMIX">      0.40000000</i>
    <i name="BMIX">      1.00000000</i>
    <i name="AMIN">      0.10000000</i>
    <i name="AMIX_MAG">      1.60000000</i>
    <i name="BMIX_MAG">      1.00000000</i>
    <separator name="electronic mixer details" >
     <i type="int" name="IMIX">     4</i>
     <i type="logical" name="MIXFIRST"> F  </i>
     <i type="int" name="MAXMIX">   -45</i>
     <i name="WC">    100.00000000</i>
     <i type="int" name="INIMIX">     1</i>
     <i type="int" name="MIXPRE">     1</i>
     <i type="int" name="MREMOVE">     5</i>
    </separator>
   </separator>
   <separator name="electronic dipolcorrection" >
    <i type="logical" name="LDIPOL"> F  </i>
    <i type="logical" name="LMONO"> F  </i>
    <i type="int" name="IDIPOL">     0</i>
    <i name="EPSILON">      1.00000000</i>
    <v name="DIPOL">   -100.00000000   -100.00000000   -100.00000000</v>
    <i name="EFIELD">      0.00000000</i>
   </separator>
  </separator>
  <separator name="grids" >
   <i type="int" name="NGX">   108</i>
   <i type="int" name="NGY">   108</i>
   <i type="int" name="NGZ">   120</i>
   <i type="int" name="NGXF">   216</i>
   <i type="int" name="NGYF">   216</i>
   <i type="int" name="NGZF">   240</i>
   <i type="logical" name="ADDGRID"> F  </i>
  </separator>
  <separator name="ionic" >
   <i type="int" name="NSW">   200</i>
   <i type="int" name="IBRION">     2</i>
   <i type="int" name="MDALGO">     0</i>
   <i type="int" name="ISIF">     2</i>
   <i name="PSTRESS">      0.00000000</i>
   <i name="EDIFFG">     -0.02500000</i>
   <i type="int" name="NFREE">     1</i>
   <i name="POTIM">      0.50000000</i>
   <i name="SMASS">     -3.00000000</i>
   <i name="SCALEE">      1.00000000</i>
  </separator>
  <separator name="ionic md" >
   <i name="TEBEG">      0.00010000</i>
   <i name="TEEND">      0.00010000</i>
   <i type="int" name="NBLOCK">     1</i>
   <i type="int" name="KBLOCK">   200</i>
   <i type="int" name="NPACO">   256</i>
   <i name="APACO">     16.00000000</i>
  </separator>
  <separator name="symmetry" >
   <i type="int" name="ISYM">     2</i>
   <i name="SYMPREC">      0.00001000</i>
  </separator>
  <separator name="dos" >
   <i type="int" name="LORBIT">     0</i>
   <v name="RWIGS">     -1.00000000     -1.00000000</v>
   <i type="int" name="NEDOS">   301</i>
   <i name="EMIN">     10.00000000</i>
   <i name="EMAX">    -10.00000000</i>
   <i name="EFERMI">      0.00000000</i>
  </separator>
  <separator name="writing" >
   <i type="int" name="NWRITE">     2</i>
   <i type="logical" name="LWAVE"> T  </i>
   <i type="logical" name="LDOWNSAMPLE"> F  </i>
   <i type="logical" name="LCHARG"> T  </i>
   <i type="logical" name="LPARD"> F  </i>
   <i type="logical" name="LVTOT"> F  </i>
   <i type="logical" name="LVHAR"> F  </i>
   <i type="logical" name="LELF"> F  </i>
   <i type="logical" name="LOPTICS"> F  </i>
   <v name="STM">      0.00000000      0.00000000      0.00000000      0.00000000      0.00000000      0.00000000      0.00000000</v>
  </separator>
  <separator name="performance" >
   <i type="int" name="NPAR">     4</i>
   <i type="int" name="NSIM">     4</i>
   <i type="int" name="NBLK">    -1</i>
   <i type="logical" name="LPLANE"> T  </i>
   <i type="logical" name="LSCALAPACK"> T  </i>
   <i type="logical" name="LSCAAWARE"> F  </i>
   <i type="logical" name="LSCALU"> F  </i>
   <i type="logical" name="LASYNC"> F  </i>
   <i type="logical" name="LORBITALREAL"> F  </i>
  </separator>
  <separator name="miscellaneous" >
   <i type="int" name="IDIOT">     3</i>
   <i type="int" name="ISPECIAL">     0</i>
   <i type="logical" name="LMUSIC"> F  </i>
   <v name="POMASS">     12.01100000     16.00000000</v>
   <v name="DARWINR">      0.00000000      0.00000000</v>
   <v name="DARWINV">      1.00000000      1.00000000</v>
   <i type="logical" name="LCORR"> T  </i>
  </separator>
  <i type="logical" name="GGA_COMPAT"> T  </i>
  <i type="logical" name="LBERRY"> F  </i>
  <i type="int" name="ICORELEVEL">     0</i>
  <i type="logical" name="LDAU"> F  </i>
  <i type="int" name="I_CONSTRAINED_M">     0</i>
  <separator name="electronic exchange-correlation" >
   <i type="string" name="GGA">BF</i>
   <i type="int" name="VOSKOWN">     0</i>
   <i type="logical" name="LHFCALC"> F  </i>
   <i type="string" name="PRECFOCK"></i>
   <i type="logical" name="LSYMGRAD"> F  </i>
   <i type="logical" name="LHFONE"> F  </i>
   <i type="logical" name="LRHFCALC"> F  </i>
   <i type="logical" name="LTHOMAS"> F  </i>
   <i type="logical" name="LMODELHF"> F  </i>
   <i name="ENCUT4O">     -1.00000000</i>
   <i type="int" name="EXXOEP">     0</i>
   <i type="int" name="FOURORBIT">     0</i>
   <i name="AEXX">      0.00000000</i>
   <i name="HFALPHA">      0.00000000</i>
   <i name="MCALPHA">      0.00000000</i>
   <i name="ALDAX">      1.00000000</i>
   <i name="AGGAX">      1.00000000</i>
   <i name="ALDAC">      1.00000000</i>
   <i name="AGGAC">      1.00000000</i>
   <i type="int" name="NKREDX">     1</i>
   <i type="int" name="NKREDY">     1</i>
   <i type="int" name="NKREDZ">     1</i>
   <i type="logical" name="SHIFTRED"> F  </i>
   <i type="logical" name="ODDONLY"> F  </i>
   <i type="logical" name="EVENONLY"> F  </i>
   <i type="int" name="LMAXFOCK">     0</i>
   <i type="int" name="NMAXFOCKAE">     0</i>
   <i type="logical" name="LFOCKAEDFT"> F  </i>
   <i name="HFSCREEN">      0.00000000</i>
   <i name="HFSCREENC">      0.00000000</i>
   <i type="int" name="NBANDSGWLOW">     0</i>
  </separator>
  <separator name="vdW DFT" >
   <i type="logical" name="LUSE_VDW"> T  </i>
   <i name="Zab_VDW">     -1.88670000</i>
   <i name="PARAM1">      0.12340000</i>
   <i name="PARAM2">      1.00000000</i>
   <i name="PARAM3">      0.00000000</i>
  </separator>
  <separator name="model GW" >
   <i type="int" name="MODEL_GW">     0</i>
   <i name="MODEL_EPS0">    641.20678720</i>
   <i name="MODEL_ALPHA">      1.00000000</i>
  </separator>
  <separator name="linear response parameters" >
   <i type="logical" name="LEPSILON"> F  </i>
   <i type="logical" name="LRPA"> F  </i>
   <i type="logical" name="LNABLA"> F  </i>
   <i type="logical" name="LVEL"> F  </i>
   <i type="int" name="KINTER">     0</i>
   <i name="CSHIFT">      0.10000000</i>
   <i name="OMEGAMAX">     -1.00000000</i>
   <i name="DEG_THRESHOLD">      0.00200000</i>
   <i name="RTIME">     -0.10000000</i>
   <i name="WPLASMAI">      0.00000000</i>
   <v name="DFIELD">      0.00000000      0.00000000      0.00000000</v>
   <v name="WPLASMA">      0.00000000      0.00000000      0.00000000      0.00000000      0.00000000      0.00000000      0.00000000      0.00000000      0.00000000</v>
  </separator>
  <separator name="orbital magnetization" >
   <i type="logical" name="NUCIND"> F  </i>
   <v name="MAGPOS">      0.00000000      0.00000000      0.00000000</v>
   <i type="logical" name="LNICSALL"> T  </i>
   <i type="logical" name="ORBITALMAG"> F  </i>
   <i type="logical" name="LMAGBLOCH"> F  </i>
   <i type="logical" name="LCHIMAG"> F  </i>
   <i type="logical" name="LGAUGE"> T  </i>
   <i type="int" name="MAGATOM">     0</i>
   <v name="MAGDIPOL">      0.00000000      0.00000000      0.00000000</v>
   <v name="AVECCONST">      0.00000000      0.00000000      0.00000000</v>
  </separator>
  <separator name="response functions" >
   <i type="logical" name="LADDER"> F  </i>
   <i type="logical" name="LRPAFORCE"> F  </i>
   <i type="logical" name="LFXC"> F  </i>
   <i type="logical" name="LHARTREE"> T  </i>
   <i type="int" name="IBSE">     0</i>
   <v type="int" name="KPOINT">    -1     0     0     0</v>
   <i type="logical" name="LTCTE"> F  </i>
   <i type="logical" name="LTETE"> F  </i>
   <i type="logical" name="LTRIPLET"> F  </i>
   <i type="logical" name="LFXCEPS"> F  </i>
   <i type="logical" name="LFXHEG"> F  </i>
   <i type="int" name="NATURALO">     2</i>
   <i type="logical" name="L2ORDER"> F  </i>
   <i type="logical" name="LMP2LT"> F  </i>
   <i type="logical" name="LUSEW"> F  </i>
   <i name="ENCUTGW">     -2.00000000</i>
   <i name="ENCUTGWSOFT">     -2.00000000</i>
   <i name="ENCUTLF">     -1.00000000</i>
   <i type="int" name="LMAXMP2">    -1</i>
   <i name="SCISSOR">      0.00000000</i>
   <i type="int" name="NOMEGA">     0</i>
   <i type="int" name="NOMEGAR">     0</i>
   <i type="int" name="NBANDSGW">    -1</i>
   <i type="int" name="NBANDSO">    -1</i>
   <i type="int" name="NBANDSV">    -1</i>
   <i type="int" name="NELM">   350</i>
   <i type="int" name="NELMHF">     1</i>
   <i type="int" name="DIM">     3</i>
   <i type="int" name="ANTIRES">     0</i>
   <i name="OMEGAMAX">    -30.00000000</i>
   <i name="OMEGAMIN">    -30.00000000</i>
   <i name="OMEGATL">   -200.00000000</i>
   <i type="int" name="OMEGAGRID">   140</i>
   <i name="CSHIFT">     -0.10000000</i>
   <i type="logical" name="SELFENERGY"> F  </i>
   <i type="logical" name="LSPECTRAL"> F  </i>
   <i type="logical" name="LSPECTRALGW"> F  </i>
   <i type="logical" name="LSINGLES"> F  </i>
   <i type="logical" name="LFERMIGW"> F  </i>
   <i type="logical" name="ODDONLYGW"> F  </i>
   <i type="logical" name="EVENONLYGW"> F  </i>
   <i type="int" name="NKREDLFX">     1</i>
   <i type="int" name="NKREDLFY">     1</i>
   <i type="int" name="NKREDLFZ">     1</i>
   <i type="int" name="MAXMEM">  2800</i>
   <i type="int" name="TELESCOPE">     0</i>
   <i type="int" name="TAUPAR">     1</i>
   <i type="int" name="OMEGAPAR">    -1</i>
   <i name="LAMBDA">      1.00000000</i>
  </separator>
  <separator name="External order field" >
   <i name="OFIELD_KAPPA">      0.00000000</i>
   <v name="OFIELD_K">      0.00000000      0.00000000      0.00000000</v>
   <i name="OFIELD_Q6_NEAR">      0.00000000</i>
   <i name="OFIELD_Q6_FAR">      0.00000000</i>
   <i name="OFIELD_A">      0.00000000</i>
  </separator>
  <separator name="solvation model" >
   <i type="logical" name="LSOL"> F  </i>
  </separator>
 </parameters>
 <atominfo>
  <atoms>       3 </atoms>
  <types>       2 </types>
  <array name="atoms" >
   <dimension dim="1">ion</dimension>
   <field type="string">element</field>
   <field type="int">atomtype</field>
   <set>
    <rc><c>C </c><c>   1</c></rc>
    <rc><c>O </c><c>   2</c></rc>
    <rc><c>O </c><c>   2</c></rc>
   </set>
  </array>
  <array name="atomtypes" >
   <dimension dim="1">type</dimension>
   <field type="int">atomspertype</field>
   <field type="string">element</field>
   <field>mass</field>
   <field>valence</field>
   <field type="string">pseudopotential</field>
   <set>
    <rc><c>   1</c><c>C </c><c>     12.01100000</c><c>      4.00000000</c><c>  PAW_PBE C 08Apr2002                   </c></rc>
    <rc><c>   2</c><c>O </c><c>     16.00000000</c><c>      6.00000000</c><c>  PAW_PBE O 08Apr2002                   </c></rc>
   </set>
  </array>
 </atominfo>
 <structure name="initialpos" >
  <crystal>
   <varray name="basis" >
    <v>      14.00000000       0.00000000       0.00000000 </v>
    <v>       0.00000000      14.00000000       0.00000000 </v>
    <v>       0.00000000       0.00000000      16.35731600 </v>
   </varray>
   <i name="volume">   3206.03393600 </i>
   <varray name="rec_basis" >
    <v>       0.07142857       0.00000000       0.00000000 </v>
    <v>       0.00000000       0.07142857       0.00000000 </v>
    <v>       0.00000000       0.00000000       0.06113472 </v>
   </varray>
  </crystal>
  <varray name="positions" >
   <v>       0.50000000       0.50000000       0.50000000 </v>
   <v>       0.50000000       0.50000000       0.57205693 </v>
   <v>       0.50000000       0.50000000       0.42794307 </v>
  </varray>
 </structure>
 <calculation>
  <scstep>
   <time name="dav">    0.13    0.16</time>
   <time name="total">    6.45    6.51</time>
   <energy>
    <i name="alphaZ">      0.33364503 </i>
    <i name="ewald">    456.06034496 </i>
    <i name="hartreedc">  -1264.30712430 </i>
    <i name="XCdc">     68.40641883 </i>
    <i name="pawpsdc">    801.55409099 </i>
    <i name="pawaedc">   -806.17344951 </i>
    <i name="eentropy">     -0.00417572 </i>
    <i name="bandstr">   -146.34392990 </i>
    <i name="atom">   1024.75762730 </i>
    <i name="e_fr_energy">    134.28344768 </i>
    <i name="e_wo_entrp">    134.28762341 </i>
    <i name="e_0_energy">    134.28553555 </i>
   </energy>
  </scstep>
  <scstep>
   <time name="dav">    0.14    0.14</time>
   <time name="total">    0.14    0.14</time>
   <energy>
    <i name="e_fr_energy">     20.69783570 </i>
    <i name="e_wo_entrp">     20.70107160 </i>
    <i name="e_0_energy">     20.69945365 </i>
   </energy>
  </scstep>
  <scstep>
   <time name="dav">    0.14    0.14</time>
   <time name="total">    0.14    0.14</time>
   <energy>
    <i name="e_fr_energy">    -15.29853750 </i>
    <i name="e_wo_entrp">    -15.29853750 </i>
    <i name="e_0_energy">    -15.29853750 </i>
   </energy>
  </scstep>
  <scstep>
   <time name="dav">    0.10    0.10</time>
   <time name="total">    0.10    0.10</time>
   <energy>
    <i name="e_fr_energy">    -20.39156732 </i>
    <i name="e_wo_entrp">    -20.39156732 </i>
    <i name="e_0_energy">    -20.39156732 </i>
   </energy>
  </scstep>
  <scstep>
   <time name="dav">    0.10    0.10</time>
   <time name="total">    0.23    0.23</time>
   <energy>
    <i name="e_fr_energy">    -20.47795016 </i>
    <i name="e_wo_entrp">    -20.47795016 </i>
    <i name="e_0_energy">    -20.47795016 </i>
   </energy>
  </scstep>
  <scstep>
   <time name="dav">    0.10    0.10</time>
   <time name="total">    6.27    6.29</time>
   <energy>
    <i name="e_fr_energy">    -18.56720517 </i>
    <i name="e_wo_entrp">    -18.56720517 </i>
    <i name="e_0_energy">    -18.56720517 </i>
   </energy>
  </scstep>
  <scstep>
   <time name="dav">    0.09    0.09</time>
   <time name="total">    6.27    6.29</time>
   <energy>
    <i name="e_fr_energy">    -18.44575057 </i>
    <i name="e_wo_entrp">    -18.44575057 </i>
    <i name="e_0_energy">    -18.44575057 </i>
   </energy>
  </scstep>
  <scstep>
   <time name="dav">    0.09    0.09</time>
   <time name="total">    6.27    6.29</time>
   <energy>
    <i name="e_fr_energy">    -18.39261025 </i>
    <i name="e_wo_entrp">    -18.39261025 </i>
    <i name="e_0_energy">    -18.39261025 </i>
   </energy>
  </scstep>
  <scstep>
   <time name="dav">    0.10    0.10</time>
   <time name="total">    6.30    6.32</time>
   <energy>
    <i name="e_fr_energy">    -18.38787853 </i>
    <i name="e_wo_entrp">    -18.38787853 </i>
    <i name="e_0_energy">    -18.38787853 </i>
   </energy>
  </scstep>
  <scstep>
   <time name="dav">    0.08    0.08</time>
   <time name="total">    6.26    6.28</time>
   <energy>
    <i name="e_fr_energy">    -18.38961827 </i>
    <i name="e_wo_entrp">    -18.38961827 </i>
    <i name="e_0_energy">    -18.38961827 </i>
   </energy>
  </scstep>
  <scstep>
   <time name="dav">    0.08    0.08</time>
   <time name="total">    6.26    6.28</time>
   <energy>
    <i name="e_fr_energy">    -18.39480495 </i>
    <i name="e_wo_entrp">    -18.39480495 </i>
    <i name="e_0_energy">    -18.39480495 </i>
   </energy>
  </scstep>
  <scstep>
   <time name="dav">    0.08    0.08</time>
   <time name="total">    6.26    6.29</time>
   <energy>
    <i name="e_fr_energy">    -18.39536962 </i>
    <i name="e_wo_entrp">    -18.39536962 </i>
    <i name="e_0_energy">    -18.39536962 </i>
   </energy>
  </scstep>
  <scstep>
   <time name="dav">    0.08    0.08</time>
   <time name="total">    6.26    6.27</time>
   <energy>
    <i name="e_fr_energy">    -18.39852565 </i>
    <i name="e_wo_entrp">    -18.39852565 </i>
    <i name="e_0_energy">    -18.39852565 </i>
   </energy>
  </scstep>
  <scstep>
   <time name="dav">    0.07    0.07</time>
   <time name="total">    6.25    6.27</time>
   <energy>
    <i name="e_fr_energy">    -18.39890110 </i>
    <i name="e_wo_entrp">    -18.39890110 </i>
    <i name="e_0_energy">    -18.39890110 </i>
   </energy>
  </scstep>
  <scstep>
   <time name="dav">    0.07    0.07</time>
   <time name="total">    6.24    6.30</time>
   <energy>
    <i name="e_fr_energy">    -18.39938732 </i>
    <i name="e_wo_entrp">    -18.39938732 </i>
    <i name="e_0_energy">    -18.39938732 </i>
   </energy>
  </scstep>
  <scstep>
   <time name="dav">    0.07    0.07</time>
   <time name="total">    6.24    6.26</time>
   <energy>
    <i name="e_fr_energy">    -18.39948864 </i>
    <i name="e_wo_entrp">    -18.39948864 </i>
    <i name="e_0_energy">    -18.39948864 </i>
   </energy>
  </scstep>
  <scstep>
   <time name="dav">    0.08    0.08</time>
   <time name="total">    6.17    6.19</time>
   <energy>
    <i name="alphaZ">      0.33364503 </i>
    <i name="ewald">    456.06034496 </i>
    <i name="hartreedc">  -1306.95100270 </i>
    <i name="XCdc">     70.83845004 </i>
    <i name="pawpsdc">   1560.34448892 </i>
    <i name="pawaedc">  -1565.03585822 </i>
    <i name="eentropy">     -0.00000000 </i>
    <i name="bandstr">   -258.74725081 </i>
    <i name="atom">   1024.75762730 </i>
    <i name="e_fr_energy">    -18.39955548 </i>
    <i name="e_wo_entrp">    -18.39955548 </i>
    <i name="e_0_energy">    -18.39955548 </i>
   </energy>
  </scstep>
  <structure>
   <crystal>
    <varray name="basis" >
     <v>      14.00000000       0.00000000       0.00000000 </v>
     <v>       0.00000000      14.00000000       0.00000000 </v>
     <v>       0.00000000       0.00000000      16.35731600 </v>
    </varray>
    <i name="volume">   3206.03393600 </i>
    <varray name="rec_basis" >
     <v>       0.07142857       0.00000000       0.00000000 </v>
     <v>       0.00000000       0.07142857       0.00000000 </v>
     <v>       0.00000000       0.00000000       0.06113472 </v>
    </varray>
   </crystal>
   <varray name="positions" >
    <v>       0.50000000       0.50000000       0.50000000 </v>
    <v>       0.50000000       0.50000000       0.57205693 </v>
    <v>       0.50000000       0.50000000       0.42794307 </v>
   </varray>
  </structure>
  <varray name="forces" >
   <v>       0.00000000      -0.00000000      -0.00000000 </v>
   <v>      -0.00000000       0.00000000      -0.46934414 </v>
   <v>      -0.00000000       0.00000000       0.46934414 </v>
  </varray>
  <varray name="stress" >
   <v>      -0.03605140       0.00000000       0.00000000 </v>
   <v>       0.00000000      -0.03605140      -0.00000000 </v>
   <v>       0.00000000      -0.00000000      -0.59486117 </v>
  </varray>
  <energy>
   <i name="e_fr_energy">    -18.39955548 </i>
   <i name="e_wo_entrp">    -18.39955548 </i>
   <i name="e_0_energy">     -0.00000000 </i>
  </energy>
  <time name="totalsc">  105.63  106.73</time>
 </calculation>
 <calculation>
  <scstep>
   <time name="dav">    0.09    0.09</time>
   <time name="total">    6.26    6.28</time>
   <energy>
    <i name="alphaZ">      0.33364503 </i>
    <i name="ewald">    471.79644064 </i>
    <i name="hartreedc">  -1317.83133349 </i>
    <i name="XCdc">     71.04686772 </i>
    <i name="pawpsdc">   1560.34485154 </i>
    <i name="pawaedc">  -1565.03629259 </i>
    <i name="eentropy">     -0.00000000 </i>
    <i name="bandstr">   -263.77927633 </i>
    <i name="atom">   1024.75762730 </i>
    <i name="e_fr_energy">    -18.36747018 </i>
    <i name="e_wo_entrp">    -18.36747018 </i>
    <i name="e_0_energy">    -18.36747018 </i>
   </energy>
  </scstep>
  <scstep>
   <time name="dav">    0.08    0.09</time>
   <time name="total">    6.27    6.30</time>
   <energy>
    <i name="e_fr_energy">    -18.36922446 </i>
    <i name="e_wo_entrp">    -18.36922446 </i>
    <i name="e_0_energy">    -18.36922446 </i>
   </energy>
  </scstep>
  <scstep>
   <time name="dav">    0.09    0.09</time>
   <time name="total">    6.28    6.30</time>
   <energy>
    <i name="e_fr_energy">    -18.36704956 </i>
    <i name="e_wo_entrp">    -18.36704956 </i>
    <i name="e_0_energy">    -18.36704956 </i>
   </energy>
  </scstep>
  <scstep>
   <time name="dav">    0.08    0.09</time>
   <time name="total">    6.29    6.31</time>
   <energy>
    <i name="e_fr_energy">    -18.36724338 </i>
    <i name="e_wo_entrp">    -18.36724338 </i>
    <i name="e_0_energy">    -18.36724338 </i>
   </energy>
  </scstep>
  <scstep>
   <time name="dav">    0.07    0.07</time>
   <time name="total">    6.12    6.14</time>
   <energy>
    <i name="alphaZ">      0.33364503 </i>
    <i name="ewald">    471.79644064 </i>
    <i name="hartreedc">  -1321.20726559 </i>
    <i name="XCdc">     71.21340768 </i>
    <i name="pawpsdc">   1642.36301873 </i>
    <i name="pawaedc">  -1647.09838897 </i>
    <i name="eentropy">     -0.00000000 </i>
    <i name="bandstr">   -260.52580378 </i>
    <i name="atom">   1024.75762730 </i>
    <i name="e_fr_energy">    -18.36731895 </i>
    <i name="e_wo_entrp">    -18.36731895 </i>
    <i name="e_0_energy">    -18.36731895 </i>
   </energy>
  </scstep>
  <structure>
   <crystal>
    <varray name="basis" >
     <v>      14.00000000       0.00000000       0.00000000 </v>
     <v>       0.00000000      14.00000000       0.00000000 </v>
     <v>       0.00000000       0.00000000      16.35731600 </v>
    </varray>
    <i name="volume">   3206.03393600 </i>
    <varray name="rec_basis" >
     <v>       0.07142857       0.00000000       0.00000000 </v>
     <v>       0.00000000       0.07142857       0.00000000 </v>
     <v>       0.00000000       0.00000000       0.06113472 </v>
    </varray>
   </crystal>
   <varray name="positions" >
    <v>       0.50000000       0.50000000       0.50000000 </v>
    <v>       0.50000000       0.50000000       0.57067269 </v>
    <v>       0.50000000       0.50000000       0.42932731 </v>
   </varray>
  </structure>
  <varray name="forces" >
   <v>      -0.00000000      -0.00000000       0.00000000 </v>
   <v>      -0.00000000       0.00000000       1.96410747 </v>
   <v>       0.00000000       0.00000000      -1.96410747 </v>
  </varray>
  <varray name="stress" >
   <v>      -0.05802510       0.00000000      -0.00000000 </v>
   <v>       0.00000000      -0.05802510       0.00000000 </v>
   <v>      -0.00000000       0.00000000       2.20879285 </v>
  </varray>
  <energy>
   <i name="e_fr_energy">    -18.36731895 </i>
   <i name="e_wo_entrp">    -18.36731895 </i>
   <i name="e_0_energy">     -0.00000000 </i>
  </energy>
  <time name="totalsc">   47.54   47.71</time>
 </calculation>
 <calculation>
  <scstep>
   <time name="dav">    0.08    0.08</time>
   <time name="total">    6.26    6.29</time>
   <energy>
    <i name="alphaZ">      0.33364503 </i>
    <i name="ewald">    459.27167366 </i>
    <i name="hartreedc">  -1312.49037239 </i>
    <i name="XCdc">     71.04317787 </i>
    <i name="pawpsdc">   1644.30120548 </i>
    <i name="pawaedc">  -1649.03659749 </i>
    <i name="eentropy">     -0.00000000 </i>
    <i name="bandstr">   -256.58254120 </i>
    <i name="atom">   1024.75762730 </i>
    <i name="e_fr_energy">    -18.40218174 </i>
    <i name="e_wo_entrp">    -18.40218174 </i>
    <i name="e_0_energy">    -18.40218174 </i>
   </energy>
  </scstep>
  <scstep>
   <time name="dav">    0.08    0.08</time>
   <time name="total">    6.27    6.30</time>
   <energy>
    <i name="e_fr_energy">    -18.40282884 </i>
    <i name="e_wo_entrp">    -18.40282884 </i>
    <i name="e_0_energy">    -18.40282884 </i>
   </energy>
  </scstep>
  <scstep>
   <time name="dav">    0.08    0.09</time>
   <time name="total">    6.27    6.30</time>
   <energy>
    <i name="e_fr_energy">    -18.40144872 </i>
    <i name="e_wo_entrp">    -18.40144872 </i>
    <i name="e_0_energy">    -18.40144872 </i>
   </energy>
  </scstep>
  <scstep>
   <time name="dav">    0.08    0.08</time>
   <time name="total">    6.33    6.37</time>
   <energy>
    <i name="e_fr_energy">    -18.40167066 </i>
    <i name="e_wo_entrp">    -18.40167066 </i>
    <i name="e_0_energy">    -18.40167066 </i>
   </energy>
  </scstep>
  <scstep>
   <time name="dav">    0.08    0.08</time>
   <time name="total">    6.12    6.14</time>
   <energy>
    <i name="alphaZ">      0.33364503 </i>
    <i name="ewald">    459.27167366 </i>
    <i name="hartreedc">  -1309.89942665 </i>
    <i name="XCdc">     70.91381992 </i>
    <i name="pawpsdc">   1578.56943453 </i>
    <i name="pawaedc">  -1583.26878827 </i>
    <i name="eentropy">     -0.00000000 </i>
    <i name="bandstr">   -259.07972941 </i>
    <i name="atom">   1024.75762730 </i>
    <i name="e_fr_energy">    -18.40174389 </i>
    <i name="e_wo_entrp">    -18.40174389 </i>
    <i name="e_0_energy">    -18.40174389 </i>
   </energy>
  </scstep>
  <structure>
   <crystal>
    <varray name="basis" >
     <v>      14.00000000       0.00000000       0.00000000 </v>
     <v>       0.00000000      14.00000000       0.00000000 </v>
     <v>       0.00000000       0.00000000      16.35731600 </v>
    </varray>
    <i name="volume">   3206.03393600 </i>
    <varray name="rec_basis" >
     <v>       0.07142857       0.00000000       0.00000000 </v>
     <v>       0.00000000       0.07142857       0.00000000 </v>
     <v>       0.00000000       0.00000000       0.06113472 </v>
    </varray>
   </crystal>
   <varray name="positions" >
    <v>       0.50000000       0.50000000       0.50000000 </v>
    <v>       0.50000000       0.50000000       0.57177003 </v>
    <v>       0.50000000       0.50000000       0.42822997 </v>
   </varray>
  </structure>
  <varray name="forces" >
   <v>       0.00000000      -0.00000000       0.00000000 </v>
   <v>      -0.00000000       0.00000000      -0.00969310 </v>
   <v>       0.00000000       0.00000000       0.00969310 </v>
  </varray>
  <varray name="stress" >
   <v>      -0.01485768       0.00000000       0.00000000 </v>
   <v>       0.00000000      -0.01485768      -0.00000000 </v>
   <v>       0.00000000      -0.00000000      -0.03746484 </v>
  </varray>
  <energy>
   <i name="e_fr_energy">    -18.40174389 </i>
   <i name="e_wo_entrp">    -18.40174389 </i>
   <i name="e_0_energy">     -0.00000000 </i>
  </energy>
  <time name="totalsc">   47.37   47.64</time>
  <eigenvalues>
   <array>
    <dimension dim="1">band</dimension>
    <dimension dim="2">kpoint</dimension>
    <dimension dim="3">spin</dimension>
    <field>eigene</field>
    <field>occ</field>
    <set>
     <set comment="spin 1">
      <set comment="kpoint 1">
       <r>  -29.5817    1.0000 </r>
       <r>  -28.5492    1.0000 </r>
       <r>  -14.1083    1.0000 </r>
       <r>  -12.8913    1.0000 </r>
       <r>  -12.8718    1.0000 </r>
       <r>  -12.8718    1.0000 </r>
       <r>   -9.3329    1.0000 </r>
       <r>   -9.3329    1.0000 </r>
       <r>   -1.4117    0.0000 </r>
       <r>   -0.8089    0.0000 </r>
       <r>   -0.8089    0.0000 </r>
       <r>    0.0734    0.0000 </r>
      </set>
     </set>
    </set>
   </array>
  </eigenvalues>
  <separator name="orbital magnetization" >
   <v name="MAGDIPOLOUT">      0.00000000      0.00000000      0.00000000</v>
  </separator>
  <dos>
   <i name="efermi">     -6.81649827 </i>
   <total>
    <array>
     <dimension dim="1">gridpoints</dimension>
     <dimension dim="2">spin</dimension>
     <field>energy</field>
     <field>total</field>
     <field>integrated</field>
     <set>
      <set comment="spin 1">
       <r>   -31.0644     0.0000     0.0000 </r>
       <r>   -30.9557     0.0000     0.0000 </r>
       <r>   -30.8470     0.0000     0.0000 </r>
       <r>   -30.7382     0.0000     0.0000 </r>
       <r>   -30.6295     0.0000     0.0000 </r>
       <r>   -30.5208     0.0000     0.0000 </r>
       <r>   -30.4120     0.0046     0.0005 </r>
       <r>   -30.3033     0.0089     0.0015 </r>
       <r>   -30.1946     0.0265     0.0043 </r>
       <r>   -30.0858     0.0781     0.0128 </r>
       <r>   -29.9771     0.2280     0.0376 </r>
       <r>   -29.8683     0.6439     0.1077 </r>
       <r>   -29.7596     1.6657     0.2888 </r>
       <r>   -29.6509     3.4802     0.6672 </r>
       <r>   -29.5421     4.8555     1.1952 </r>
       <r>   -29.4334     4.0015     1.6303 </r>
       <r>   -29.3247     2.1007     1.8587 </r>
       <r>   -29.2159     0.8604     1.9522 </r>
       <r>   -29.1072     0.3498     1.9903 </r>
       <r>   -28.9985     0.2393     2.0163 </r>
       <r>   -28.8897     0.4231     2.0623 </r>
       <r>   -28.7810     1.0581     2.1793 </r>
       <r>   -28.6723     2.5098     2.4522 </r>
       <r>   -28.5635     4.3811     2.9286 </r>
       <r>   -28.4548     4.7026     3.4399 </r>
       <r>   -28.3461     3.0185     3.7682 </r>
       <r>   -28.2373     1.3535     3.9153 </r>
       <r>   -28.1286     0.5085     3.9706 </r>
       <r>   -28.0199     0.1781     3.9900 </r>
       <r>   -27.9111     0.0608     3.9966 </r>
       <r>   -27.8024     0.0206     3.9989 </r>
       <r>   -27.6936     0.0000     4.0000 </r>
       <r>   -27.5849     0.0000     4.0000 </r>
       <r>   -27.4762     0.0000     4.0000 </r>
       <r>   -27.3674     0.0000     4.0000 </r>
       <r>   -27.2587     0.0000     4.0000 </r>
       <r>   -27.1500     0.0000     4.0000 </r>
       <r>   -27.0412     0.0000     4.0000 </r>
       <r>   -26.9325     0.0000     4.0000 </r>
       <r>   -26.8238     0.0000     4.0000 </r>
       <r>   -26.7150     0.0000     4.0000 </r>
       <r>   -26.6063     0.0000     4.0000 </r>
       <r>   -26.4976     0.0000     4.0000 </r>
       <r>   -26.3888     0.0000     4.0000 </r>
       <r>   -26.2801     0.0000     4.0000 </r>
       <r>   -26.1714     0.0000     4.0000 </r>
       <r>   -26.0626     0.0000     4.0000 </r>
       <r>   -25.9539     0.0000     4.0000 </r>
       <r>   -25.8451     0.0000     4.0000 </r>
       <r>   -25.7364     0.0000     4.0000 </r>
       <r>   -25.6277     0.0000     4.0000 </r>
       <r>   -25.5189     0.0000     4.0000 </r>
       <r>   -25.4102     0.0000     4.0000 </r>
       <r>   -25.3015     0.0000     4.0000 </r>
       <r>   -25.1927     0.0000     4.0000 </r>
       <r>   -25.0840     0.0000     4.0000 </r>
       <r>   -24.9753     0.0000     4.0000 </r>
       <r>   -24.8665     0.0000     4.0000 </r>
       <r>   -24.7578     0.0000     4.0000 </r>
       <r>   -24.6491     0.0000     4.0000 </r>
       <r>   -24.5403     0.0000     4.0000 </r>
       <r>   -24.4316     0.0000     4.0000 </r>
       <r>   -24.3229     0.0000     4.0000 </r>
       <r>   -24.2141     0.0000     4.0000 </r>
       <r>   -24.1054     0.0000     4.0000 </r>
       <r>   -23.9967     0.0000     4.0000 </r>
       <r>   -23.8879     0.0000     4.0000 </r>
       <r>   -23.7792     0.0000     4.0000 </r>
       <r>   -23.6704     0.0000     4.0000 </r>
       <r>   -23.5617     0.0000     4.0000 </r>
       <r>   -23.4530     0.0000     4.0000 </r>
       <r>   -23.3442     0.0000     4.0000 </r>
       <r>   -23.2355     0.0000     4.0000 </r>
       <r>   -23.1268     0.0000     4.0000 </r>
       <r>   -23.0180     0.0000     4.0000 </r>
       <r>   -22.9093     0.0000     4.0000 </r>
       <r>   -22.8006     0.0000     4.0000 </r>
       <r>   -22.6918     0.0000     4.0000 </r>
       <r>   -22.5831     0.0000     4.0000 </r>
       <r>   -22.4744     0.0000     4.0000 </r>
       <r>   -22.3656     0.0000     4.0000 </r>
       <r>   -22.2569     0.0000     4.0000 </r>
       <r>   -22.1482     0.0000     4.0000 </r>
       <r>   -22.0394     0.0000     4.0000 </r>
       <r>   -21.9307     0.0000     4.0000 </r>
       <r>   -21.8219     0.0000     4.0000 </r>
       <r>   -21.7132     0.0000     4.0000 </r>
       <r>   -21.6045     0.0000     4.0000 </r>
       <r>   -21.4957     0.0000     4.0000 </r>
       <r>   -21.3870     0.0000     4.0000 </r>
       <r>   -21.2783     0.0000     4.0000 </r>
       <r>   -21.1695     0.0000     4.0000 </r>
       <r>   -21.0608     0.0000     4.0000 </r>
       <r>   -20.9521     0.0000     4.0000 </r>
       <r>   -20.8433     0.0000     4.0000 </r>
       <r>   -20.7346     0.0000     4.0000 </r>
       <r>   -20.6259     0.0000     4.0000 </r>
       <r>   -20.5171     0.0000     4.0000 </r>
       <r>   -20.4084     0.0000     4.0000 </r>
       <r>   -20.2997     0.0000     4.0000 </r>
       <r>   -20.1909     0.0000     4.0000 </r>
       <r>   -20.0822     0.0000     4.0000 </r>
       <r>   -19.9735     0.0000     4.0000 </r>
       <r>   -19.8647     0.0000     4.0000 </r>
       <r>   -19.7560     0.0000     4.0000 </r>
       <r>   -19.6472     0.0000     4.0000 </r>
       <r>   -19.5385     0.0000     4.0000 </r>
       <r>   -19.4298     0.0000     4.0000 </r>
       <r>   -19.3210     0.0000     4.0000 </r>
       <r>   -19.2123     0.0000     4.0000 </r>
       <r>   -19.1036     0.0000     4.0000 </r>
       <r>   -18.9948     0.0000     4.0000 </r>
       <r>   -18.8861     0.0000     4.0000 </r>
       <r>   -18.7774     0.0000     4.0000 </r>
       <r>   -18.6686     0.0000     4.0000 </r>
       <r>   -18.5599     0.0000     4.0000 </r>
       <r>   -18.4512     0.0000     4.0000 </r>
       <r>   -18.3424     0.0000     4.0000 </r>
       <r>   -18.2337     0.0000     4.0000 </r>
       <r>   -18.1250     0.0000     4.0000 </r>
       <r>   -18.0162     0.0000     4.0000 </r>
       <r>   -17.9075     0.0000     4.0000 </r>
       <r>   -17.7987     0.0000     4.0000 </r>
       <r>   -17.6900     0.0000     4.0000 </r>
       <r>   -17.5813     0.0000     4.0000 </r>
       <r>   -17.4725     0.0000     4.0000 </r>
       <r>   -17.3638     0.0000     4.0000 </r>
       <r>   -17.2551     0.0000     4.0000 </r>
       <r>   -17.1463     0.0000     4.0000 </r>
       <r>   -17.0376     0.0000     4.0000 </r>
       <r>   -16.9289     0.0000     4.0000 </r>
       <r>   -16.8201     0.0000     4.0000 </r>
       <r>   -16.7114     0.0000     4.0000 </r>
       <r>   -16.6027     0.0000     4.0000 </r>
       <r>   -16.4939     0.0000     4.0000 </r>
       <r>   -16.3852     0.0000     4.0000 </r>
       <r>   -16.2765     0.0000     4.0000 </r>
       <r>   -16.1677     0.0000     4.0000 </r>
       <r>   -16.0590     0.0000     4.0000 </r>
       <r>   -15.9503     0.0000     4.0000 </r>
       <r>   -15.8415     0.0000     4.0000 </r>
       <r>   -15.7328     0.0000     4.0000 </r>
       <r>   -15.6240     0.0000     4.0000 </r>
       <r>   -15.5153     0.0000     4.0000 </r>
       <r>   -15.4066     0.0000     4.0000 </r>
       <r>   -15.2978     0.0000     4.0000 </r>
       <r>   -15.1891     0.0000     4.0000 </r>
       <r>   -15.0804     0.0000     4.0000 </r>
       <r>   -14.9716     0.0033     4.0004 </r>
       <r>   -14.8629     0.0064     4.0011 </r>
       <r>   -14.7542     0.0191     4.0031 </r>
       <r>   -14.6454     0.0563     4.0093 </r>
       <r>   -14.5367     0.1650     4.0272 </r>
       <r>   -14.4280     0.4724     4.0786 </r>
       <r>   -14.3192     1.2671     4.2163 </r>
       <r>   -14.2105     2.8772     4.5292 </r>
       <r>   -14.1018     4.6292     5.0325 </r>
       <r>   -13.9930     4.4822     5.5199 </r>
       <r>   -13.8843     2.6451     5.8075 </r>
       <r>   -13.7755     1.1397     5.9315 </r>
       <r>   -13.6668     0.4313     5.9784 </r>
       <r>   -13.5581     0.1861     5.9986 </r>
       <r>   -13.4493     0.1706     6.0171 </r>
       <r>   -13.3406     0.3728     6.0577 </r>
       <r>   -13.2319     1.0295     6.1706 </r>
       <r>   -13.1231     2.8362     6.4789 </r>
       <r>   -13.0144     6.8788     7.2269 </r>
       <r>   -12.9057    12.5620     8.5929 </r>
       <r>   -12.7969    14.3690    10.1553 </r>
       <r>   -12.6882     9.7732    11.2180 </r>
       <r>   -12.5795     4.5367    11.7113 </r>
       <r>   -12.4707     1.7306    11.8994 </r>
       <r>   -12.3620     0.6096    11.9657 </r>
       <r>   -12.2533     0.2086    11.9884 </r>
       <r>   -12.1445     0.0707    11.9961 </r>
       <r>   -12.0358     0.0000    12.0000 </r>
       <r>   -11.9270     0.0000    12.0000 </r>
       <r>   -11.8183     0.0000    12.0000 </r>
       <r>   -11.7096     0.0000    12.0000 </r>
       <r>   -11.6008     0.0000    12.0000 </r>
       <r>   -11.4921     0.0000    12.0000 </r>
       <r>   -11.3834     0.0000    12.0000 </r>
       <r>   -11.2746     0.0000    12.0000 </r>
       <r>   -11.1659     0.0000    12.0000 </r>
       <r>   -11.0572     0.0000    12.0000 </r>
       <r>   -10.9484     0.0000    12.0000 </r>
       <r>   -10.8397     0.0000    12.0000 </r>
       <r>   -10.7310     0.0000    12.0000 </r>
       <r>   -10.6222     0.0000    12.0000 </r>
       <r>   -10.5135     0.0000    12.0000 </r>
       <r>   -10.4048     0.0000    12.0000 </r>
       <r>   -10.2960     0.0000    12.0000 </r>
       <r>   -10.1873     0.0072    12.0008 </r>
       <r>   -10.0786     0.0141    12.0023 </r>
       <r>    -9.9698     0.0417    12.0068 </r>
       <r>    -9.8611     0.1231    12.0202 </r>
       <r>    -9.7523     0.3604    12.0594 </r>
       <r>    -9.6436     1.0285    12.1713 </r>
       <r>    -9.5349     2.7342    12.4686 </r>
       <r>    -9.4261     6.0803    13.1297 </r>
       <r>    -9.3174     9.4255    14.1546 </r>
       <r>    -9.2087     8.7298    15.1038 </r>
       <r>    -9.0999     4.9789    15.6452 </r>
       <r>    -8.9912     2.0943    15.8729 </r>
       <r>    -8.8825     0.7663    15.9562 </r>
       <r>    -8.7737     0.2658    15.9851 </r>
       <r>    -8.6650     0.0905    15.9950 </r>
       <r>    -8.5563     0.0306    15.9983 </r>
       <r>    -8.4475     0.0000    16.0000 </r>
       <r>    -8.3388     0.0000    16.0000 </r>
       <r>    -8.2301     0.0000    16.0000 </r>
       <r>    -8.1213     0.0000    16.0000 </r>
       <r>    -8.0126     0.0000    16.0000 </r>
       <r>    -7.9038     0.0000    16.0000 </r>
       <r>    -7.7951     0.0000    16.0000 </r>
       <r>    -7.6864     0.0000    16.0000 </r>
       <r>    -7.5776     0.0000    16.0000 </r>
       <r>    -7.4689     0.0000    16.0000 </r>
       <r>    -7.3602     0.0000    16.0000 </r>
       <r>    -7.2514     0.0000    16.0000 </r>
       <r>    -7.1427     0.0000    16.0000 </r>
       <r>    -7.0340     0.0000    16.0000 </r>
       <r>    -6.9252     0.0000    16.0000 </r>
       <r>    -6.8165     0.0000    16.0000 </r>
       <r>    -6.7078     0.0000    16.0000 </r>
       <r>    -6.5990     0.0000    16.0000 </r>
       <r>    -6.4903     0.0000    16.0000 </r>
       <r>    -6.3816     0.0000    16.0000 </r>
       <r>    -6.2728     0.0000    16.0000 </r>
       <r>    -6.1641     0.0000    16.0000 </r>
       <r>    -6.0554     0.0000    16.0000 </r>
       <r>    -5.9466     0.0000    16.0000 </r>
       <r>    -5.8379     0.0000    16.0000 </r>
       <r>    -5.7291     0.0000    16.0000 </r>
       <r>    -5.6204     0.0000    16.0000 </r>
       <r>    -5.5117     0.0000    16.0000 </r>
       <r>    -5.4029     0.0000    16.0000 </r>
       <r>    -5.2942     0.0000    16.0000 </r>
       <r>    -5.1855     0.0000    16.0000 </r>
       <r>    -5.0767     0.0000    16.0000 </r>
       <r>    -4.9680     0.0000    16.0000 </r>
       <r>    -4.8593     0.0000    16.0000 </r>
       <r>    -4.7505     0.0000    16.0000 </r>
       <r>    -4.6418     0.0000    16.0000 </r>
       <r>    -4.5331     0.0000    16.0000 </r>
       <r>    -4.4243     0.0000    16.0000 </r>
       <r>    -4.3156     0.0000    16.0000 </r>
       <r>    -4.2069     0.0000    16.0000 </r>
       <r>    -4.0981     0.0000    16.0000 </r>
       <r>    -3.9894     0.0000    16.0000 </r>
       <r>    -3.8806     0.0000    16.0000 </r>
       <r>    -3.7719     0.0000    16.0000 </r>
       <r>    -3.6632     0.0000    16.0000 </r>
       <r>    -3.5544     0.0000    16.0000 </r>
       <r>    -3.4457     0.0000    16.0000 </r>
       <r>    -3.3370     0.0000    16.0000 </r>
       <r>    -3.2282     0.0000    16.0000 </r>
       <r>    -3.1195     0.0000    16.0000 </r>
       <r>    -3.0108     0.0000    16.0000 </r>
       <r>    -2.9020     0.0000    16.0000 </r>
       <r>    -2.7933     0.0000    16.0000 </r>
       <r>    -2.6846     0.0000    16.0000 </r>
       <r>    -2.5758     0.0000    16.0000 </r>
       <r>    -2.4671     0.0000    16.0000 </r>
       <r>    -2.3584     0.0000    16.0000 </r>
       <r>    -2.2496     0.0042    16.0005 </r>
       <r>    -2.1409     0.0083    16.0014 </r>
       <r>    -2.0322     0.0246    16.0040 </r>
       <r>    -1.9234     0.0725    16.0119 </r>
       <r>    -1.8147     0.2117    16.0349 </r>
       <r>    -1.7059     0.6048    16.1007 </r>
       <r>    -1.5972     1.5760    16.2721 </r>
       <r>    -1.4885     3.3692    16.6384 </r>
       <r>    -1.3797     4.9044    17.1717 </r>
       <r>    -1.2710     4.3579    17.6455 </r>
       <r>    -1.1623     2.9003    17.9609 </r>
       <r>    -1.0535     2.7923    18.2645 </r>
       <r>    -0.9448     4.9126    18.7987 </r>
       <r>    -0.8361     8.5025    19.7232 </r>
       <r>    -0.7273     9.6398    20.7714 </r>
       <r>    -0.6186     6.5349    21.4820 </r>
       <r>    -0.5099     3.0497    21.8143 </r>
       <r>    -0.4011     1.2530    21.9506 </r>
       <r>    -0.2924     0.7082    22.0276 </r>
       <r>    -0.1837     0.9833    22.1345 </r>
       <r>    -0.0749     2.1423    22.3674 </r>
       <r>     0.0338     3.9988    22.8048 </r>
       <r>     0.1426     4.8555    23.3328 </r>
       <r>     0.2513     3.4802    23.7112 </r>
       <r>     0.3600     1.6657    23.8923 </r>
       <r>     0.4688     0.6439    23.9624 </r>
       <r>     0.5775     0.2280    23.9872 </r>
       <r>     0.6862     0.0781    23.9957 </r>
       <r>     0.7950     0.0265    23.9985 </r>
       <r>     0.9037     0.0000    24.0000 </r>
       <r>     1.0124     0.0000    24.0000 </r>
       <r>     1.1212     0.0000    24.0000 </r>
       <r>     1.2299     0.0000    24.0000 </r>
       <r>     1.3386     0.0000    24.0000 </r>
       <r>     1.4474     0.0000    24.0000 </r>
       <r>     1.5561     0.0000    24.0000 </r>
      </set>
     </set>
    </array>
   </total>
  </dos>
 </calculation>
 <structure name="finalpos" >
  <crystal>
   <varray name="basis" >
    <v>      14.00000000       0.00000000       0.00000000 </v>
    <v>       0.00000000      14.00000000       0.00000000 </v>
    <v>       0.00000000       0.00000000      16.35731600 </v>
   </varray>
   <i name="volume">   3206.03393600 </i>
   <varray name="rec_basis" >
    <v>       0.07142857       0.00000000       0.00000000 </v>
    <v>       0.00000000       0.07142857       0.00000000 </v>
    <v>       0.00000000       0.00000000       0.06113472 </v>
   </varray>
  </crystal>
  <varray name="positions" >
   <v>       0.50000000       0.50000000       0.50000000 </v>
   <v>       0.50000000       0.50000000       0.57177003 </v>
   <v>       0.50000000       0.50000000       0.42822997 </v>
  </varray>
 </structure>
</modeling>
