 vasp.5.4.4.18Apr17-6-g9f103f2a35 (build Oct 12 2018 15:21:48) complex          
  
 executed on             LinuxIFC date 2019.08.02  10:26:41
 running on   16 total cores
 distrk:  each k-point on   16 cores,    1 groups
 distr:  one band on NCORES_PER_BAND=   4 cores,    4 groups


--------------------------------------------------------------------------------------------------------


 INCAR:
 POTCAR:    PAW_PBE H 15Jun2001                   

 ----------------------------------------------------------------------------- 
|                                                                             |
|  ADVICE TO THIS USER RUNNING 'VASP/VAMP'   (HEAR YOUR MASTER'S VOICE ...):  |
|                                                                             |
|      You have switched on vdW-DFT.                                          |
|      This routine was written and supplied by Jiri Klimes.                  |
|      We recommed that you carefully read and cite the following             |
|      publication                                                            |
|      J. Klimes, D.R. Bowler, A. Michelides                                  |
|        J. Phys.: Cond Matt. 22 022201 (2010)                                |
|      J. Klimes, D.R. Bowler, A. Michelides                                  |
|        Phys. Rev. B. 83, 195131 (2011)                                      |
|      and references therein.                                                |
|                                                                             |
 ----------------------------------------------------------------------------- 

 POTCAR:    PAW_PBE H 15Jun2001                   
   VRHFIN =H: ultrasoft test                                                    
   LEXCH  = PE                                                                  
   EATOM  =    12.4884 eV,    0.9179 Ry                                         
                                                                                
   TITEL  = PAW_PBE H 15Jun2001                                                 
   LULTRA =        F    use ultrasoft PP ?                                      
   IUNSCR =        0    unscreen: 0-lin 1-nonlin 2-no                           
   RPACOR =    0.000    partial core radius                                     
   POMASS =    1.000; ZVAL   =    1.000    mass and valenz                      
   RCORE  =    1.100    outmost cutoff radius                                   
   RWIGS  =    0.700; RWIGS  =    0.370    wigner-seitz radius (au A)           
   ENMAX  =  250.000; ENMIN  =  200.000 eV                                      
   RCLOC  =    0.701    cutoff for local pot                                    
   LCOR   =        T    correct aug charges                                     
   LPAW   =        T    paw PP                                                  
   EAUG   =  400.000                                                            
   RMAX   =    1.123    core radius for proj-oper                               
   RAUG   =    1.200    factor for augmentation sphere                          
   RDEP   =    1.112    radius for radial grids                                 
   RDEPT  =    0.926    core radius for aug-charge                              
                                                                                
   Atomic configuration                                                         
    2 entries                                                                   
     n  l   j            E        occ.                                          
     1  0  0.50        -6.4927   1.0000                                         
     2  1  0.50        -3.4015   0.0000                                         
   Description                                                                  
     l       E           TYP  RCUT    TYP  RCUT                                 
     0     -6.4927494     23  1.100                                             
     0      6.8029130     23  1.100                                             
     1     -4.0817478     23  1.100                                             
  local pseudopotential read in
  atomic valenz-charges read in
  non local Contribution for L=           0  read in
    real space projection operators read in
  non local Contribution for L=           0  read in
    real space projection operators read in
  non local Contribution for L=           1  read in
    real space projection operators read in
    PAW grid and wavefunctions read in
 
   number of l-projection  operators is LMAX  =           3
   number of lm-projection operators is LMMAX =           5
 

 ----------------------------------------------------------------------------- 
|                                                                             |
|  ADVICE TO THIS USER RUNNING 'VASP/VAMP'   (HEAR YOUR MASTER'S VOICE ...):  |
|                                                                             |
|      You enforced a specific xc-type in the INCAR file,                     |
|      a different type was found on the POTCAR file                          |
|          I HOPE YOU KNOW, WHAT YOU ARE  DOING                               |
|                                                                             |
 ----------------------------------------------------------------------------- 

  PAW_PBE H 15Jun2001                   :
 energy of atom  1       EATOM=  -12.4884
 kinetic energy error for atom=    0.0020 (will be added to EATOM!!)
 
 
 POSCAR:  H                                      
  positions in cartesian coordinates
  No initial velocities read in
 exchange correlation table for  LEXCH =       17
   RHO(1)=    0.500       N(1)  =     2000
   RHO(2)=  100.500       N(2)  =     4000

 VTST: version 3.2, (02/03/18)

 CHAIN: initializing optimizer
 
 OPT: Using VASP Conjugate-Gradient optimizer
 CHAIN: Read ICHAIN            0
 
 POSCAR:  H                                      
  positions in cartesian coordinates
  No initial velocities read in
 


--------------------------------------------------------------------------------------------------------


 ion  position               nearest neighbor table
   1  0.500  0.500  0.525-   2 0.74
   2  0.500  0.500  0.475-   1 0.74
 
  LATTYP: Found a simple tetragonal cell.
 ALAT       =    14.0000000000
 C/A-ratio  =     1.0526547143
  
  Lattice vectors:
  
 A1 = (  14.0000000000,   0.0000000000,   0.0000000000)
 A2 = (   0.0000000000,  14.0000000000,   0.0000000000)
 A3 = (   0.0000000000,   0.0000000000,  14.7371660000)


Analysis of symmetry for initial positions (statically):
=====================================================================
 Subroutine PRICEL returns:
 Original cell was already a primitive cell.
 

 Routine SETGRP: Setting up the symmetry group for a 
 simple tetragonal supercell.


 Subroutine GETGRP returns: Found 16 space group operations
 (whereof 16 operations were pure point group operations)
 out of a pool of 16 trial point group operations.


The static configuration has the point symmetry D_4h.


Analysis of symmetry for dynamics (positions and initial velocities):
=====================================================================
 Subroutine PRICEL returns:
 Original cell was already a primitive cell.
 

 Routine SETGRP: Setting up the symmetry group for a 
 simple tetragonal supercell.


 Subroutine GETGRP returns: Found 16 space group operations
 (whereof 16 operations were pure point group operations)
 out of a pool of 16 trial point group operations.


The dynamic configuration has the point symmetry D_4h.


 Subroutine INISYM returns: Found 16 space group operations
 (whereof 16 operations are pure point group operations),
 and found     1 'primitive' translations

 
 
 KPOINTS: KPOINTS created by Atomic Simulation Env

Automatic generation of k-mesh.
Space group operators:
 irot       det(A)        alpha          n_x          n_y          n_z        tau_x        tau_y        tau_z
    1     1.000000     0.000000     1.000000     0.000000     0.000000     0.000000     0.000000     0.000000
    2    -1.000000     0.000000     1.000000     0.000000     0.000000     0.000000     0.000000     0.000000
    3     1.000000    90.000000     0.000000     0.000000    -1.000000     0.000000     0.000000     0.000000
    4    -1.000000    90.000000     0.000000     0.000000    -1.000000     0.000000     0.000000     0.000000
    5     1.000000   180.000000     0.000000     0.000000     1.000000     0.000000     0.000000     0.000000
    6    -1.000000   180.000000     0.000000     0.000000     1.000000     0.000000     0.000000     0.000000
    7     1.000000    90.000000     0.000000     0.000000     1.000000     0.000000     0.000000     0.000000
    8    -1.000000    90.000000     0.000000     0.000000     1.000000     0.000000     0.000000     0.000000
    9     1.000000   180.000000     0.000000     1.000000     0.000000     0.000000     0.000000     0.000000
   10    -1.000000   180.000000     0.000000     1.000000     0.000000     0.000000     0.000000     0.000000
   11     1.000000   180.000000     0.707107     0.707107     0.000000     0.000000     0.000000     0.000000
   12    -1.000000   180.000000     0.707107     0.707107     0.000000     0.000000     0.000000     0.000000
   13     1.000000   180.000000     1.000000     0.000000     0.000000     0.000000     0.000000     0.000000
   14    -1.000000   180.000000     1.000000     0.000000     0.000000     0.000000     0.000000     0.000000
   15     1.000000   180.000000     0.707107    -0.707107     0.000000     0.000000     0.000000     0.000000
   16    -1.000000   180.000000     0.707107    -0.707107     0.000000     0.000000     0.000000     0.000000
 
 Subroutine IBZKPT returns following result:
 ===========================================
 
 Found      1 irreducible k-points:
 
 Following reciprocal coordinates:
            Coordinates               Weight
  0.000000  0.000000  0.000000      1.000000
 
 Following cartesian coordinates:
            Coordinates               Weight
  0.000000  0.000000  0.000000      1.000000
 


--------------------------------------------------------------------------------------------------------




 Dimension of arrays:
   k-points           NKPTS =      1   k-points in BZ     NKDIM =      1   number of bands    NBANDS=      8
   number of dos      NEDOS =    301   number of ions     NIONS =      2
   non local maximal  LDIM  =      3   non local SUM 2l+1 LMDIM =      5
   total plane-waves  NPLWV = ******
   max r-space proj   IRMAX =      1   max aug-charges    IRDMAX=   2319
   dimension x,y,z NGX =   108 NGY =  108 NGZ =  108
   dimension x,y,z NGXF=   216 NGYF=  216 NGZF=  216
   support grid    NGXF=   216 NGYF=  216 NGZF=  216
   ions per type =               2
   NGX,Y,Z   is equivalent  to a cutoff of  12.82, 12.82, 12.18 a.u.
   NGXF,Y,Z  is equivalent  to a cutoff of  25.65, 25.65, 24.37 a.u.

 SYSTEM =  unknown system                          
 POSCAR =   H                                      

 Startparameter for this run:
   NWRITE =      2    write-flag & timer
   PREC   = accura    normal or accurate (medium, high low for compatibility)
   ISTART =      0    job   : 0-new  1-cont  2-samecut
   ICHARG =      2    charge: 1-file 2-atom 10-const
   ISPIN  =      1    spin polarized calculation?
   LNONCOLLINEAR =      F non collinear calculations
   LSORBIT =      F    spin-orbit coupling
   INIWAV =      1    electr: 0-lowe 1-rand  2-diag
   LASPH  =      F    aspherical Exc in radial PAW
   METAGGA=      F    non-selfconsistent MetaGGA calc.

 Electronic Relaxation 1
   ENCUT  =  500.0 eV  36.75 Ry    6.06 a.u.  25.53 25.53 26.87*2*pi/ulx,y,z
   ENINI  =  500.0     initial cutoff
   ENAUG  =  400.0 eV  augmentation charge cutoff
   NELM   =    350;   NELMIN=  2; NELMDL=  0     # of ELM steps 
   EDIFF  = 0.1E-03   stopping-criterion for ELM
   LREAL  =      F    real-space projection
   NLSPLINE    = F    spline interpolate recip. space projectors
   LCOMPAT=      F    compatible to vasp.4.4
   GGA_COMPAT  = T    GGA compatible to vasp.4.4-vasp.4.6
   LMAXPAW     = -100 max onsite density
   LMAXMIX     =    2 max onsite mixed and CHGCAR
   VOSKOWN=      0    Vosko Wilk Nusair interpolation
   ROPT   =    0.00000
 Ionic relaxation
   EDIFFG = -.3E-01   stopping-criterion for IOM
   NSW    =    200    number of steps for IOM
   NBLOCK =      1;   KBLOCK =    200    inner block; outer block 
   IBRION =      2    ionic relax: 0-MD 1-quasi-New 2-CG
   NFREE  =      1    steps in history (QN), initial steepest desc. (CG)
   ISIF   =      2    stress and relaxation
   IWAVPR =     11    prediction:  0-non 1-charg 2-wave 3-comb
   ISYM   =      2    0-nonsym 1-usesym 2-fastsym
   LCORR  =      T    Harris-Foulkes like correction to forces

   POTIM  = 0.5000    time-step for ionic-motion
   TEIN   =    0.0    initial temperature
   TEBEG  =    0.0;   TEEND  =   0.0 temperature during run
   SMASS  =  -3.00    Nose mass-parameter (am)
   estimated Nose-frequenzy (Omega)   =  0.10E-29 period in steps =****** mass=  -0.448E-26a.u.
   SCALEE = 1.0000    scale energy and forces
   NPACO  =    256;   APACO  = 16.0  distance and # of slots for P.C.
   PSTRESS=    0.0 pullay stress

  Mass of Ions in am
   POMASS =   1.00
  Ionic Valenz
   ZVAL   =   1.00
  Atomic Wigner-Seitz radii
   RWIGS  =  -1.00
  virtual crystal weights 
   VCA    =   1.00
   NELECT =       2.0000    total number of electrons
   NUPDOWN=      -1.0000    fix difference up-down

 DOS related values:
   EMIN   =  10.00;   EMAX   =-10.00  energy-range for DOS
   EFERMI =   0.00
   ISMEAR =    -1;   SIGMA  =   0.10  broadening in eV -4-tet -1-fermi 0-gaus

 Electronic relaxation 2 (details)
   IALGO  =     38    algorithm
   LDIAG  =      T    sub-space diagonalisation (order eigenvalues)
   LSUBROT=      F    optimize rotation matrix (better conditioning)
   TURBO    =      0    0=normal 1=particle mesh
   IRESTART =      0    0=no restart 2=restart with 2 vectors
   NREBOOT  =      0    no. of reboots
   NMIN     =      0    reboot dimension
   EREF     =   0.00    reference energy to select bands
   IMIX   =      4    mixing-type and parameters
     AMIX     =   0.40;   BMIX     =  1.00
     AMIX_MAG =   1.60;   BMIX_MAG =  1.00
     AMIN     =   0.10
     WC   =   100.;   INIMIX=   1;  MIXPRE=   1;  MAXMIX= -45

 Intra band minimization:
   WEIMIN = 0.0010     energy-eigenvalue tresh-hold
   EBREAK =  0.31E-05  absolut break condition
   DEPER  =   0.30     relativ break condition  

   TIME   =   0.40     timestep for ELM

  volume/ion in A,a.u.               =    1444.24      9746.23
  Fermi-wavevector in a.u.,A,eV,Ry     =   0.144831  0.273691  0.285396  0.020976
  Thomas-Fermi vector in A             =   0.811493
 
 Write flags
   LWAVE        =      T    write WAVECAR
   LDOWNSAMPLE  =      F    k-point downsampling of WAVECAR
   LCHARG       =      T    write CHGCAR
   LVTOT        =      F    write LOCPOT, total local potential
   LVHAR        =      F    write LOCPOT, Hartree potential only
   LELF         =      F    write electronic localiz. function (ELF)
   LORBIT       =      0    0 simple, 1 ext, 2 COOP (PROOUT), +10 PAW based schemes


 Dipole corrections
   LMONO  =      F    monopole corrections only (constant potential shift)
   LDIPOL =      F    correct potential (dipole corrections)
   IDIPOL =      0    1-x, 2-y, 3-z, 4-all directions 
   EPSILON=  1.0000000 bulk dielectric constant

 Exchange correlation treatment:
   GGA     =    BF    GGA type
   LEXCH   =    17    internal setting for exchange type
   VOSKOWN=      0    Vosko Wilk Nusair interpolation
   LHFCALC =     F    Hartree Fock is set to
   LHFONE  =     F    Hartree Fock one center treatment
   AEXX    =    0.0000 exact exchange contribution

 vdW DFT:
   LUSE_VDW   =     T    switch on vdW DFT
   Zab_VDW    =******    correlation parameter
   PARAM1     =0.1234
   PARAM2     =1.0000
   PARAM3     =0.0000
   -- rVV10 --
   BPARAM     = 6.3000
   CPARAM     = 0.0093

 Linear response parameters
   LEPSILON=     F    determine dielectric tensor
   LRPA    =     F    only Hartree local field effects (RPA)
   LNABLA  =     F    use nabla operator in PAW spheres
   LVEL    =     F    velocity operator in full k-point grid
   LINTERFAST=   F  fast interpolation
   KINTER  =     0    interpolate to denser k-point grid
   CSHIFT  =0.1000    complex shift for real part using Kramers Kronig
   OMEGAMAX=  -1.0    maximum frequency
   DEG_THRESHOLD= 0.2000000E-02 threshold for treating states as degnerate
   RTIME   =   -0.100 relaxation time in fs
  (WPLASMAI=    0.000 imaginary part of plasma frequency in eV, 0.658/RTIME)
   DFIELD  = 0.0000000 0.0000000 0.0000000 field for delta impulse in time
 
 Orbital magnetization related:
   ORBITALMAG=     F  switch on orbital magnetization
   LCHIMAG   =     F  perturbation theory with respect to B field
   DQ        =  0.001000  dq finite difference perturbation B field
   LLRAUG    =     F  two centre corrections for induced B field



--------------------------------------------------------------------------------------------------------


 conjugate gradient relaxation of ions
 charge density and potential will be updated during run
 non-spin polarized calculation
 Variant of blocked Davidson
 Davidson routine will perform the subspace rotation
 perform sub-space diagonalisation
    after iterative eigenvector-optimisation
 modified Broyden-mixing scheme, WC =      100.0
 initial mixing is a Kerker type mixing with AMIX =  0.4000 and BMIX =      1.0000
 Hartree-type preconditioning will be used
 using additional bands            7
 reciprocal scheme for non local part
 calculate Harris-corrections to forces 
   (improved forces if not selfconsistent)
 use gradient corrections 
 use of overlap-Matrix (Vanderbilt PP)
 Fermi-smearing in eV        SIGMA  =   0.10


--------------------------------------------------------------------------------------------------------


  energy-cutoff  :      500.00
  volume of cell :     2888.48
      direct lattice vectors                 reciprocal lattice vectors
    14.000000000  0.000000000  0.000000000     0.071428571  0.000000000  0.000000000
     0.000000000 14.000000000  0.000000000     0.000000000  0.071428571  0.000000000
     0.000000000  0.000000000 14.737166000     0.000000000  0.000000000  0.067855651

  length of vectors
    14.000000000 14.000000000 14.737166000     0.071428571  0.071428571  0.067855651


 
 k-points in units of 2pi/SCALE and weight: KPOINTS created by Atomic Simulation Env
   0.00000000  0.00000000  0.00000000       1.000
 
 k-points in reciprocal lattice and weights: KPOINTS created by Atomic Simulation Env
   0.00000000  0.00000000  0.00000000       1.000
 
 position of ions in fractional coordinates (direct lattice) 
   0.50000000  0.50000000  0.52501044
   0.50000000  0.50000000  0.47498956
 
 position of ions in cartesian coordinates  (Angst):
   7.00000000  7.00000000  7.73716600
   7.00000000  7.00000000  7.00000000
 


--------------------------------------------------------------------------------------------------------


 k-point  1 :   0.0000 0.0000 0.0000  plane waves:   73313

 maximum and minimum number of plane-waves per node :     18335    18321

 maximum number of plane-waves:     73313
 maximum index in each direction: 
   IXMAX=   25   IYMAX=   25   IZMAX=   26
   IXMIN=  -25   IYMIN=  -25   IZMIN=  -26


 parallel 3D FFT for wavefunctions:
    minimum data exchange during FFTs selected (reduces bandwidth)
 parallel 3D FFT for charge:
    minimum data exchange during FFTs selected (reduces bandwidth)


 total amount of memory used by VASP MPI-rank0   107286. kBytes
=======================================================================

   base      :      30000. kBytes
   nonl-proj :       1319. kBytes
   fftplans  :      31190. kBytes
   grid      :      44190. kBytes
   one-center:          1. kBytes
   wavefun   :        586. kBytes
 
     INWAV:  cpu time    0.0000: real time    0.0002
 Broyden mixing: mesh for mixing (old mesh)
   NGX = 51   NGY = 51   NGZ = 53
  (NGX  =216   NGY  =216   NGZ  =216)
  gives a total of 137853 points

 initial charge density was supplied:
 charge density of overlapping atoms calculated
 number of electron       2.0000000 magnetization 
 keeping initial charge density in first step


--------------------------------------------------------------------------------------------------------


 Maximum index for augmentation-charges          140 (set IRDMAX)


--------------------------------------------------------------------------------------------------------


 First call to EWALD:  gamma=   0.124
 Maximum number of real-space cells 3x 3x 3
 Maximum number of reciprocal cells 3x 3x 3

    FEWALD:  cpu time    0.0013: real time    0.0013


--------------------------------------- Iteration      1(   1)  ---------------------------------------


vdW kernel read from vdw_kernel.bindat
  0.0000  0.2424  0.5071  0.7962  1.1119  1.4567  1.8333  2.2446  2.6937  3.1842
  3.7199  4.3049  4.9438  5.6415  6.4036  7.2358  8.1446  9.1372 10.2212 11.4050
 12.6979 14.1099 15.6519 17.3360 19.1751 21.1837 23.3773 25.7729 28.3892 31.2465
 34.3669 37.7748 41.4965 45.5611 50.0000
 
    POTLOK:  cpu time   22.2437: real time   22.2631
    SETDIJ:  cpu time    0.0037: real time    0.0046
     EDDAV:  cpu time    0.1783: real time    0.1936
       DOS:  cpu time    0.0003: real time    0.0015
    --------------------------------------------
      LOOP:  cpu time   22.4259: real time   22.4628

 eigenvalue-minimisations  :    24
 total energy-change (2. order) :-0.1021338E+01  (-0.5838902E+02)
 number of electron       2.0000000 magnetization 
 augmentation part        2.0000000 magnetization 

 Free energy of the ion-electron system (eV)
  ---------------------------------------------------
  alpha Z        PSCENC =         0.00337363
  Ewald energy   TEWEN  =        13.80628928
  -Hartree energ DENC   =       -23.04521564
  -exchange      EXHF   =         0.00000000
  -V(xc)+E(xc)   XCENC  =         4.21453326
  PAW double counting   =         3.79030621       -3.82362138
  entropy T*S    EENTRO =        -0.00000000
  eigenvalues    EBANDS =       -21.75766082
  atomic energy  EATOM  =        25.79065728
  Solvation  Ediel_sol  =         0.00000000
  ---------------------------------------------------
  free energy    TOTEN  =        -1.02133820 eV

  energy without entropy =       -1.02133820  energy(sigma->0) =       -1.02133820


--------------------------------------------------------------------------------------------------------




--------------------------------------- Iteration      1(   2)  ---------------------------------------


     EDDAV:  cpu time    0.1302: real time    0.1315
       DOS:  cpu time    0.0001: real time    0.0001
    --------------------------------------------
      LOOP:  cpu time    0.1304: real time    0.1316

 eigenvalue-minimisations  :    16
 total energy-change (2. order) :-0.6689844E+01  (-0.6689844E+01)
 number of electron       2.0000000 magnetization 
 augmentation part        2.0000000 magnetization 

 Free energy of the ion-electron system (eV)
  ---------------------------------------------------
  alpha Z        PSCENC =         0.00337363
  Ewald energy   TEWEN  =        13.80628928
  -Hartree energ DENC   =       -23.04521564
  -exchange      EXHF   =         0.00000000
  -V(xc)+E(xc)   XCENC  =         4.21453326
  PAW double counting   =         3.79030621       -3.82362138
  entropy T*S    EENTRO =        -0.00000000
  eigenvalues    EBANDS =       -28.44750481
  atomic energy  EATOM  =        25.79065728
  Solvation  Ediel_sol  =         0.00000000
  ---------------------------------------------------
  free energy    TOTEN  =        -7.71118219 eV

  energy without entropy =       -7.71118219  energy(sigma->0) =       -7.71118219


--------------------------------------------------------------------------------------------------------




--------------------------------------- Iteration      1(   3)  ---------------------------------------


     EDDAV:  cpu time    0.1736: real time    0.1737
       DOS:  cpu time    0.0001: real time    0.0001
    --------------------------------------------
      LOOP:  cpu time    0.1737: real time    0.1738

 eigenvalue-minimisations  :    24
 total energy-change (2. order) :-0.2773810E+00  (-0.2773810E+00)
 number of electron       2.0000000 magnetization 
 augmentation part        2.0000000 magnetization 

 Free energy of the ion-electron system (eV)
  ---------------------------------------------------
  alpha Z        PSCENC =         0.00337363
  Ewald energy   TEWEN  =        13.80628928
  -Hartree energ DENC   =       -23.04521564
  -exchange      EXHF   =         0.00000000
  -V(xc)+E(xc)   XCENC  =         4.21453326
  PAW double counting   =         3.79030621       -3.82362138
  entropy T*S    EENTRO =        -0.00000000
  eigenvalues    EBANDS =       -28.72488579
  atomic energy  EATOM  =        25.79065728
  Solvation  Ediel_sol  =         0.00000000
  ---------------------------------------------------
  free energy    TOTEN  =        -7.98856317 eV

  energy without entropy =       -7.98856317  energy(sigma->0) =       -7.98856317


--------------------------------------------------------------------------------------------------------




--------------------------------------- Iteration      1(   4)  ---------------------------------------


     EDDAV:  cpu time    0.2178: real time    0.2192
       DOS:  cpu time    0.0001: real time    0.0001
    --------------------------------------------
      LOOP:  cpu time    0.2179: real time    0.2193

 eigenvalue-minimisations  :    32
 total energy-change (2. order) :-0.1917680E-03  (-0.1917680E-03)
 number of electron       2.0000000 magnetization 
 augmentation part        2.0000000 magnetization 

 Free energy of the ion-electron system (eV)
  ---------------------------------------------------
  alpha Z        PSCENC =         0.00337363
  Ewald energy   TEWEN  =        13.80628928
  -Hartree energ DENC   =       -23.04521564
  -exchange      EXHF   =         0.00000000
  -V(xc)+E(xc)   XCENC  =         4.21453326
  PAW double counting   =         3.79030621       -3.82362138
  entropy T*S    EENTRO =        -0.00000000
  eigenvalues    EBANDS =       -28.72507756
  atomic energy  EATOM  =        25.79065728
  Solvation  Ediel_sol  =         0.00000000
  ---------------------------------------------------
  free energy    TOTEN  =        -7.98875494 eV

  energy without entropy =       -7.98875494  energy(sigma->0) =       -7.98875494


--------------------------------------------------------------------------------------------------------




--------------------------------------- Iteration      1(   5)  ---------------------------------------


     EDDAV:  cpu time    0.1737: real time    0.1749
       DOS:  cpu time    0.0001: real time    0.0001
    CHARGE:  cpu time    0.1491: real time    0.1492
    MIXING:  cpu time    0.0130: real time    0.0130
    --------------------------------------------
      LOOP:  cpu time    0.3360: real time    0.3373

 eigenvalue-minimisations  :    24
 total energy-change (2. order) :-0.4025630E-08  (-0.4027502E-08)
 number of electron       2.0000002 magnetization 
 augmentation part        0.0500468 magnetization 

 Broyden mixing:
  rms(total) = 0.48546E+00    rms(broyden)= 0.48535E+00
  rms(prec ) = 0.55206E+00
  weight for this iteration     100.00

 Free energy of the ion-electron system (eV)
  ---------------------------------------------------
  alpha Z        PSCENC =         0.00337363
  Ewald energy   TEWEN  =        13.80628928
  -Hartree energ DENC   =       -23.04521564
  -exchange      EXHF   =         0.00000000
  -V(xc)+E(xc)   XCENC  =         4.21453326
  PAW double counting   =         3.79030621       -3.82362138
  entropy T*S    EENTRO =        -0.00000000
  eigenvalues    EBANDS =       -28.72507757
  atomic energy  EATOM  =        25.79065728
  Solvation  Ediel_sol  =         0.00000000
  ---------------------------------------------------
  free energy    TOTEN  =        -7.98875494 eV

  energy without entropy =       -7.98875494  energy(sigma->0) =       -7.98875494


--------------------------------------------------------------------------------------------------------




--------------------------------------- Iteration      1(   6)  ---------------------------------------


    POTLOK:  cpu time   21.7814: real time   21.7881
    SETDIJ:  cpu time    0.0020: real time    0.0020
     EDDAV:  cpu time    0.1310: real time    0.1310
       DOS:  cpu time    0.0002: real time    0.0002
    CHARGE:  cpu time    0.1482: real time    0.1482
    MIXING:  cpu time    0.0131: real time    0.0131
    --------------------------------------------
      LOOP:  cpu time   22.0758: real time   22.0826

 eigenvalue-minimisations  :    16
 total energy-change (2. order) : 0.5332221E+00  (-0.2937699E-01)
 number of electron       2.0000002 magnetization 
 augmentation part        0.0477527 magnetization 

 Broyden mixing:
  rms(total) = 0.26481E+00    rms(broyden)= 0.26481E+00
  rms(prec ) = 0.30426E+00
  weight for this iteration     100.00

 eigenvalues of (default mixing * dielectric matrix)
  average eigenvalue GAMMA=   2.1757
  2.1757

 Free energy of the ion-electron system (eV)
  ---------------------------------------------------
  alpha Z        PSCENC =         0.00337363
  Ewald energy   TEWEN  =        13.80628928
  -Hartree energ DENC   =       -25.75104008
  -exchange      EXHF   =         0.00000000
  -V(xc)+E(xc)   XCENC  =         4.60937105
  PAW double counting   =        10.51689493      -10.55962338
  entropy T*S    EENTRO =        -0.00000000
  eigenvalues    EBANDS =       -25.87145557
  atomic energy  EATOM  =        25.79065728
  Solvation  Ediel_sol  =         0.00000000
  ---------------------------------------------------
  free energy    TOTEN  =        -7.45553286 eV

  energy without entropy =       -7.45553286  energy(sigma->0) =       -7.45553286


--------------------------------------------------------------------------------------------------------




--------------------------------------- Iteration      1(   7)  ---------------------------------------


    POTLOK:  cpu time   21.7994: real time   21.8085
    SETDIJ:  cpu time    0.0021: real time    0.0021
     EDDAV:  cpu time    0.1308: real time    0.1308
       DOS:  cpu time    0.0002: real time    0.0001
    CHARGE:  cpu time    0.1481: real time    0.1482
    MIXING:  cpu time    0.0134: real time    0.0134
    --------------------------------------------
      LOOP:  cpu time   22.0940: real time   22.1032

 eigenvalue-minimisations  :    16
 total energy-change (2. order) : 0.2916368E+00  (-0.8100019E-01)
 number of electron       2.0000001 magnetization 
 augmentation part        0.0440723 magnetization 

 Broyden mixing:
  rms(total) = 0.35439E-01    rms(broyden)= 0.35396E-01
  rms(prec ) = 0.40695E-01
  weight for this iteration     100.00

 eigenvalues of (default mixing * dielectric matrix)
  average eigenvalue GAMMA=   2.2361
  2.2361  2.2361

 Free energy of the ion-electron system (eV)
  ---------------------------------------------------
  alpha Z        PSCENC =         0.00337363
  Ewald energy   TEWEN  =        13.80628928
  -Hartree energ DENC   =       -29.89094817
  -exchange      EXHF   =         0.00000000
  -V(xc)+E(xc)   XCENC  =         5.23383228
  PAW double counting   =        23.34265013      -23.41086499
  entropy T*S    EENTRO =        -0.00000000
  eigenvalues    EBANDS =       -22.03888547
  atomic energy  EATOM  =        25.79065728
  Solvation  Ediel_sol  =         0.00000000
  ---------------------------------------------------
  free energy    TOTEN  =        -7.16389604 eV

  energy without entropy =       -7.16389604  energy(sigma->0) =       -7.16389604


--------------------------------------------------------------------------------------------------------




--------------------------------------- Iteration      1(   8)  ---------------------------------------


    POTLOK:  cpu time   21.8208: real time   21.8278
    SETDIJ:  cpu time    0.0021: real time    0.0021
     EDDAV:  cpu time    0.1314: real time    0.1315
       DOS:  cpu time    0.0002: real time    0.0002
    CHARGE:  cpu time    0.1482: real time    0.1483
    MIXING:  cpu time    0.0139: real time    0.0148
    --------------------------------------------
      LOOP:  cpu time   22.1166: real time   22.1246

 eigenvalue-minimisations  :    16
 total energy-change (2. order) :-0.6818184E-02  (-0.3515218E-02)
 number of electron       2.0000001 magnetization 
 augmentation part        0.0445840 magnetization 

 Broyden mixing:
  rms(total) = 0.34094E-01    rms(broyden)= 0.34093E-01
  rms(prec ) = 0.40836E-01
  weight for this iteration     100.00

 eigenvalues of (default mixing * dielectric matrix)
  average eigenvalue GAMMA=   1.9934
  0.9319  2.8724  2.1758

 Free energy of the ion-electron system (eV)
  ---------------------------------------------------
  alpha Z        PSCENC =         0.00337363
  Ewald energy   TEWEN  =        13.80628928
  -Hartree energ DENC   =       -29.48748849
  -exchange      EXHF   =         0.00000000
  -V(xc)+E(xc)   XCENC  =         5.14310203
  PAW double counting   =        21.43055994      -21.49095443
  entropy T*S    EENTRO =        -0.00000000
  eigenvalues    EBANDS =       -22.36625345
  atomic energy  EATOM  =        25.79065728
  Solvation  Ediel_sol  =         0.00000000
  ---------------------------------------------------
  free energy    TOTEN  =        -7.17071423 eV

  energy without entropy =       -7.17071423  energy(sigma->0) =       -7.17071423


--------------------------------------------------------------------------------------------------------




--------------------------------------- Iteration      1(   9)  ---------------------------------------


    POTLOK:  cpu time   21.8144: real time   21.8220
    SETDIJ:  cpu time    0.0020: real time    0.0020
     EDDAV:  cpu time    0.1305: real time    0.1305
       DOS:  cpu time    0.0001: real time    0.0001
    CHARGE:  cpu time    0.1482: real time    0.1482
    MIXING:  cpu time    0.0139: real time    0.0139
    --------------------------------------------
      LOOP:  cpu time   22.1090: real time   22.1167

 eigenvalue-minimisations  :    16
 total energy-change (2. order) : 0.9581474E-02  (-0.1280711E-02)
 number of electron       2.0000001 magnetization 
 augmentation part        0.0441688 magnetization 

 Broyden mixing:
  rms(total) = 0.45595E-02    rms(broyden)= 0.45535E-02
  rms(prec ) = 0.75343E-02
  weight for this iteration     100.00

 eigenvalues of (default mixing * dielectric matrix)
  average eigenvalue GAMMA=   1.8527
  2.3843  2.3843  1.0261  1.6161

 Free energy of the ion-electron system (eV)
  ---------------------------------------------------
  alpha Z        PSCENC =         0.00337363
  Ewald energy   TEWEN  =        13.80628928
  -Hartree energ DENC   =       -30.16663702
  -exchange      EXHF   =         0.00000000
  -V(xc)+E(xc)   XCENC  =         5.23561211
  PAW double counting   =        23.41208429      -23.47544911
  entropy T*S    EENTRO =        -0.00000000
  eigenvalues    EBANDS =       -21.76706320
  atomic energy  EATOM  =        25.79065728
  Solvation  Ediel_sol  =         0.00000000
  ---------------------------------------------------
  free energy    TOTEN  =        -7.16113275 eV

  energy without entropy =       -7.16113275  energy(sigma->0) =       -7.16113275


--------------------------------------------------------------------------------------------------------




--------------------------------------- Iteration      1(  10)  ---------------------------------------


    POTLOK:  cpu time   21.8187: real time   21.8269
    SETDIJ:  cpu time    0.0020: real time    0.0020
     EDDAV:  cpu time    0.1313: real time    0.1313
       DOS:  cpu time    0.0002: real time    0.0002
    CHARGE:  cpu time    0.1479: real time    0.1479
    MIXING:  cpu time    0.0141: real time    0.0141
    --------------------------------------------
      LOOP:  cpu time   22.1140: real time   22.1223

 eigenvalue-minimisations  :    16
 total energy-change (2. order) :-0.3811078E-02  (-0.1032615E-03)
 number of electron       2.0000001 magnetization 
 augmentation part        0.0440759 magnetization 

 Broyden mixing:
  rms(total) = 0.27942E-02    rms(broyden)= 0.27924E-02
  rms(prec ) = 0.47234E-02
  weight for this iteration     100.00

 eigenvalues of (default mixing * dielectric matrix)
  average eigenvalue GAMMA=   2.0984
  3.8896  2.5751  2.0630  0.9821  0.9821

 Free energy of the ion-electron system (eV)
  ---------------------------------------------------
  alpha Z        PSCENC =         0.00337363
  Ewald energy   TEWEN  =        13.80628928
  -Hartree energ DENC   =       -30.28437565
  -exchange      EXHF   =         0.00000000
  -V(xc)+E(xc)   XCENC  =         5.24790923
  PAW double counting   =        23.31388541      -23.37786927
  entropy T*S    EENTRO =        -0.00000000
  eigenvalues    EBANDS =       -21.66481372
  atomic energy  EATOM  =        25.79065728
  Solvation  Ediel_sol  =         0.00000000
  ---------------------------------------------------
  free energy    TOTEN  =        -7.16494383 eV

  energy without entropy =       -7.16494383  energy(sigma->0) =       -7.16494383


--------------------------------------------------------------------------------------------------------




--------------------------------------- Iteration      1(  11)  ---------------------------------------


    POTLOK:  cpu time   21.8322: real time   21.8402
    SETDIJ:  cpu time    0.0019: real time    0.0019
     EDDAV:  cpu time    0.1309: real time    0.1311
       DOS:  cpu time    0.0001: real time    0.0001
    CHARGE:  cpu time    0.1485: real time    0.1485
    MIXING:  cpu time    0.0143: real time    0.0143
    --------------------------------------------
      LOOP:  cpu time   22.1279: real time   22.1362

 eigenvalue-minimisations  :    16
 total energy-change (2. order) :-0.1909539E-02  (-0.1643025E-04)
 number of electron       2.0000001 magnetization 
 augmentation part        0.0440438 magnetization 

 Broyden mixing:
  rms(total) = 0.17214E-02    rms(broyden)= 0.17211E-02
  rms(prec ) = 0.28187E-02
  weight for this iteration     100.00

 eigenvalues of (default mixing * dielectric matrix)
  average eigenvalue GAMMA=   2.5708
  4.3672  4.3672  2.6620  2.0735  0.9775  0.9775

 Free energy of the ion-electron system (eV)
  ---------------------------------------------------
  alpha Z        PSCENC =         0.00337363
  Ewald energy   TEWEN  =        13.80628928
  -Hartree energ DENC   =       -30.37823984
  -exchange      EXHF   =         0.00000000
  -V(xc)+E(xc)   XCENC  =         5.25439539
  PAW double counting   =        23.27199507      -23.33578530
  entropy T*S    EENTRO =        -0.00000000
  eigenvalues    EBANDS =       -21.57953887
  atomic energy  EATOM  =        25.79065728
  Solvation  Ediel_sol  =         0.00000000
  ---------------------------------------------------
  free energy    TOTEN  =        -7.16685337 eV

  energy without entropy =       -7.16685337  energy(sigma->0) =       -7.16685337


--------------------------------------------------------------------------------------------------------




--------------------------------------- Iteration      1(  12)  ---------------------------------------


    POTLOK:  cpu time   21.8270: real time   21.8339
    SETDIJ:  cpu time    0.0020: real time    0.0020
     EDDAV:  cpu time    0.1329: real time    0.1338
       DOS:  cpu time    0.0001: real time    0.0001
    CHARGE:  cpu time    0.1481: real time    0.1481
    MIXING:  cpu time    0.0147: real time    0.0147
    --------------------------------------------
      LOOP:  cpu time   22.1248: real time   22.1325

 eigenvalue-minimisations  :    16
 total energy-change (2. order) :-0.5013074E-03  (-0.5177435E-04)
 number of electron       2.0000001 magnetization 
 augmentation part        0.0440592 magnetization 

 Broyden mixing:
  rms(total) = 0.57378E-03    rms(broyden)= 0.57378E-03
  rms(prec ) = 0.95042E-03
  weight for this iteration     100.00

 eigenvalues of (default mixing * dielectric matrix)
  average eigenvalue GAMMA=   2.4072
  5.3844  3.6261  2.3636  1.7633  1.7633  0.9748  0.9748

 Free energy of the ion-electron system (eV)
  ---------------------------------------------------
  alpha Z        PSCENC =         0.00337363
  Ewald energy   TEWEN  =        13.80628928
  -Hartree energ DENC   =       -30.35534401
  -exchange      EXHF   =         0.00000000
  -V(xc)+E(xc)   XCENC  =         5.24887569
  PAW double counting   =        23.26596831      -23.32954090
  entropy T*S    EENTRO =        -0.00000000
  eigenvalues    EBANDS =       -21.59763395
  atomic energy  EATOM  =        25.79065728
  Solvation  Ediel_sol  =         0.00000000
  ---------------------------------------------------
  free energy    TOTEN  =        -7.16735468 eV

  energy without entropy =       -7.16735468  energy(sigma->0) =       -7.16735468


--------------------------------------------------------------------------------------------------------




--------------------------------------- Iteration      1(  13)  ---------------------------------------


    POTLOK:  cpu time   21.8260: real time   21.8343
    SETDIJ:  cpu time    0.0024: real time    0.0024
     EDDAV:  cpu time    0.1752: real time    0.1752
       DOS:  cpu time    0.0002: real time    0.0002
    --------------------------------------------
      LOOP:  cpu time   22.0037: real time   22.0121

 eigenvalue-minimisations  :    24
 total energy-change (2. order) :-0.9965148E-04  (-0.1101282E-05)
 number of electron       2.0000001 magnetization 
 augmentation part        0.0440592 magnetization 

 Free energy of the ion-electron system (eV)
  ---------------------------------------------------
  alpha Z        PSCENC =         0.00337363
  Ewald energy   TEWEN  =        13.80628928
  -Hartree energ DENC   =       -30.35787414
  -exchange      EXHF   =         0.00000000
  -V(xc)+E(xc)   XCENC  =         5.24894305
  PAW double counting   =        23.24192873      -23.30552557
  entropy T*S    EENTRO =        -0.00000000
  eigenvalues    EBANDS =       -21.59524658
  atomic energy  EATOM  =        25.79065728
  Solvation  Ediel_sol  =         0.00000000
  ---------------------------------------------------
  free energy    TOTEN  =        -7.16745433 eV

  energy without entropy =       -7.16745433  energy(sigma->0) =       -7.16745433


--------------------------------------------------------------------------------------------------------




 average (electrostatic) potential at core
  the test charge radii are     0.5201
  (the norm of the test charge is              1.0000)
       1 -42.9846       2 -42.9846
 
 
 
 E-fermi :  -8.3935     XC(G=0):  -0.3546     alpha+bet : -0.0191


 k-point     1 :       0.0000    0.0000    0.0000
  band No.  band energies     occupation 
      1     -10.7976      2.00000
      2      -0.2931      0.00000
      3      -0.0130      0.00000
      4       0.3630      0.00000
      5       0.4050      0.00000
      6       0.4050      0.00000
      7       0.4238      0.00000
      8       0.4652      0.00000


--------------------------------------------------------------------------------------------------------


 soft charge-density along one line, spin component           1
         0         1         2         3         4         5         6         7         8         9
 total charge-density along one line
 
 pseudopotential strength for first ion, spin component:           1
 -2.363  -4.075   0.000   0.002  -0.000
 -4.075  -6.943   0.000   0.006  -0.000
  0.000   0.000  -0.347   0.000   0.000
  0.002   0.006   0.000  -0.341  -0.000
 -0.000  -0.000   0.000  -0.000  -0.347
 total augmentation occupancy for first ion, spin component:           1
  2.770  -0.339   0.000  -0.382  -0.000
 -0.339   0.042   0.000   0.047   0.000
  0.000   0.000   0.000  -0.000  -0.000
 -0.382   0.047  -0.000   0.053   0.000
 -0.000   0.000   0.000   0.000   0.000


------------------------ aborting loop because EDIFF is reached ----------------------------------------


    CHARGE:  cpu time    0.1478: real time    0.1478
    FORLOC:  cpu time    0.0152: real time    0.0152
    FORNL :  cpu time    0.0030: real time    0.0030
    STRESS:  cpu time    0.0595: real time    0.0595
    FORHAR:  cpu time    0.1386: real time    0.1387
    MIXING:  cpu time    0.0145: real time    0.0145
    OFIELD:  cpu time    0.0000: real time    0.0000

  FORCE on cell =-STRESS in cart. coord.  units (eV):
  Direction    XX          YY          ZZ          XY          YZ          ZX
  --------------------------------------------------------------------------------------
  Alpha Z     0.00337     0.00337     0.00337
  Ewald      -1.81405    -1.81405    17.43439     0.00000     0.00000     0.00000
  Hartree     9.45413     9.45413    11.46400    -0.00000    -0.00000    -0.00000
  E(xc)      -6.58842    -6.58842    -6.06485    -0.00000    -0.00000    -0.00000
  Local     -17.47329   -17.47329   -30.73499     0.00000    -0.00000    -0.00000
  n-local    -5.54107    -5.54107    -6.58801    -0.00000     0.00000     0.00000
  augment     0.31034     0.31034     0.23479     0.00000     0.00000     0.00000
  Kinetic    21.60874    21.60874    14.15357     0.00000    -0.00000     0.00000
  Fock        0.00000     0.00000     0.00000     0.00000     0.00000     0.00000
  -------------------------------------------------------------------------------------
  Total      -0.04024    -0.04024    -0.09775    -0.00000     0.00000    -0.00000
  in kB      -0.02232    -0.02232    -0.05422    -0.00000     0.00000    -0.00000
  external pressure =       -0.03 kB  Pullay stress =        0.00 kB


 VOLUME and BASIS-vectors are now :
 -----------------------------------------------------------------------------
  energy-cutoff  :      500.00
  volume of cell :     2888.48
      direct lattice vectors                 reciprocal lattice vectors
    14.000000000  0.000000000  0.000000000     0.071428571  0.000000000  0.000000000
     0.000000000 14.000000000  0.000000000     0.000000000  0.071428571  0.000000000
     0.000000000  0.000000000 14.737166000     0.000000000  0.000000000  0.067855651

  length of vectors
    14.000000000 14.000000000 14.737166000     0.071428571  0.071428571  0.067855651


 FORCES acting on ions
    electron-ion (+dipol)            ewald-force                    non-local-force                 convergence-correction
 -----------------------------------------------------------------------------------------------
   0.279E-13 0.121E-12 -.211E+02   0.137E-17 -.774E-18 0.265E+02   0.101E-27 -.202E-27 -.542E+01   -.947E-15 0.299E-15 0.126E-02
   0.278E-13 0.870E-13 0.211E+02   -.124E-18 -.292E-18 -.265E+02   -.884E-28 -.202E-27 0.542E+01   -.924E-15 0.117E-15 -.126E-02
 -----------------------------------------------------------------------------------------------
   0.557E-13 0.208E-12 0.135E-12   0.125E-17 -.107E-17 0.000E+00   0.126E-28 -.404E-27 -.888E-15   -.187E-14 0.417E-15 0.594E-15
 
 
 POSITION                                       TOTAL-FORCE (eV/Angst)
 -----------------------------------------------------------------------------------
      7.00000      7.00000      7.73717         0.000000     -0.000000     -0.059826
      7.00000      7.00000      7.00000        -0.000000      0.000000      0.059826
 -----------------------------------------------------------------------------------
    total drift:                                0.000000      0.000000      0.000000


--------------------------------------------------------------------------------------------------------



  FREE ENERGIE OF THE ION-ELECTRON SYSTEM (eV)
  ---------------------------------------------------
  free  energy   TOTEN  =        -7.16745433 eV

  energy  without entropy=       -7.16745433  energy(sigma->0) =       -7.16745433
 


--------------------------------------------------------------------------------------------------------


 BEEFens 2000 ensemble energies
             -0.163456930180444E+01
              0.105972335915566E+00
             -0.246727447250144E+00
              0.104865814178828E+01
             -0.592889858950933E+00
             -0.282950139563174E+00
             -0.119972285019877E+01
             -0.244902077253771E+01
             -0.678317376328599E+00
             -0.895343669704468E+00
             -0.724763661212226E+00
              0.480697816014715E-01
             -0.332738556767267E-01
             -0.461078946923070E-01
              0.432849441758814E-01
              0.114776141097480E+01
             -0.513231220614569E+00
             -0.101526252996991E+00
              0.774257710596430E+00
             -0.266635957020408E+01
              0.123531065203606E+01
             -0.479033678757556E+00
             -0.189620792434550E+00
             -0.228548055281415E+00
              0.158465636900525E+00
             -0.956270629746685E-01
              0.229435293645924E+01
             -0.430470372651442E+00
             -0.568307016008269E-01
             -0.132309575788452E+01
              0.172273439942696E+01
              0.108358393588266E-01
             -0.108235459484809E+01
              0.270605414985543E+00
             -0.750784761162806E-01
              0.817784678292013E+00
             -0.520391083634486E-02
             -0.916278259117842E-01
              0.109070158261774E+01
             -0.242710407870032E+01
              0.140772676453399E+01
              0.164211857593088E+00
             -0.361114856515014E+00
             -0.511033294129818E+00
              0.376565538177991E+00
             -0.330600273057239E+00
              0.134930147907653E+01
              0.892976675059726E+00
             -0.489374541045256E+00
             -0.831472366722307E+00
             -0.806449744819313E+00
             -0.100853729984097E+01
              0.823401854049780E+00
             -0.122893060468413E+01
              0.342160618764145E+00
              0.140729020271834E+01
              0.179994780488551E+01
              0.807844727639078E+00
              0.411682129799030E+00
              0.787720674373928E+00
              0.240275953467814E+01
              0.461078825531478E+00
             -0.136135018789047E+01
             -0.281302763672694E+00
             -0.873640378766261E+00
              0.148586055119905E+01
             -0.177161337845383E+01
             -0.155005412797466E+01
             -0.969371281298281E+00
             -0.516155189790652E+00
             -0.818097226340356E+00
              0.768005918106692E+00
              0.563227373613465E+00
              0.366318955753650E+00
             -0.108171960838589E+01
             -0.814307353623538E+00
             -0.137943963845306E+01
              0.800415338886406E+00
             -0.835278579281481E+00
              0.970670562072109E+00
             -0.287996697125110E+00
             -0.786777933046419E+00
             -0.111171082487604E+01
             -0.332690342235077E+00
             -0.512132135889502E+00
             -0.278838297638822E+00
              0.102511039979805E+01
              0.195162450597432E+01
             -0.103825640317803E+01
             -0.180410264820068E+01
             -0.444932216681490E+00
              0.267773172229378E+01
             -0.142880162515182E+01
              0.778406475025963E+00
             -0.801531807372857E-01
             -0.149099775137313E+01
              0.766895202269434E+00
              0.644169035723761E+00
             -0.294842398960171E+00
              0.689758974738547E+00
             -0.747545957332330E+00
             -0.146743521763041E+01
              0.263834974203254E+01
              0.100865537405056E+01
              0.406042844428364E+00
              0.113339188575913E+00
              0.311909159075428E+00
              0.198381138095600E+01
             -0.779434345394785E+00
              0.130818723793205E-01
             -0.346630145837713E+01
              0.519623925519892E+00
             -0.164903157302702E+01
              0.261486600690519E+00
              0.478622473681148E+00
             -0.802136230668861E+00
             -0.126476546735234E+01
              0.996804284507764E-01
             -0.854772699081222E+00
              0.112791274935534E+01
             -0.932518764316283E+00
             -0.359038488096401E+00
             -0.101782174580117E+01
              0.103332134841104E+00
              0.140227479408108E+00
              0.534082393600205E+00
              0.926598403102972E-01
             -0.219121732568063E+00
              0.168250622074234E+01
              0.226154871689426E+01
              0.125596919314107E+01
              0.145871518931586E+01
             -0.424108926154573E+00
              0.656365420137561E-02
              0.112348082188266E+01
              0.262628733478182E+00
             -0.186940827998781E+01
             -0.122360589233235E+01
             -0.126140104474748E+01
             -0.782516594142626E+00
              0.643592449467883E+00
             -0.300703840026085E+01
             -0.237695383518348E+00
              0.105467176052603E+01
             -0.116987326745632E+01
             -0.841867764679559E+00
              0.130947176491090E+01
              0.139997318339019E+01
             -0.678411523291027E+00
              0.995986098255532E+00
             -0.669638895302816E+00
              0.101014886407468E+01
              0.224643703135490E+00
              0.226454265942889E+00
             -0.201206217802443E+01
             -0.117916193430688E+01
             -0.266325335650615E+00
             -0.353905624090516E+00
             -0.955143209786900E+00
              0.291174533294560E+01
             -0.582786872134324E-01
             -0.646258226723461E+00
              0.932504288516267E+00
             -0.992552110117635E+00
             -0.969735988508098E+00
              0.793678763721246E+00
              0.240522962792430E+00
              0.114465882716656E+00
              0.389378363209978E+00
             -0.270634511107310E+00
              0.148496903289805E+00
              0.142049362660561E+01
             -0.604055402581532E+00
              0.565537202093006E+00
              0.218949799718957E+01
              0.749692998740968E+00
              0.106887478620681E+00
             -0.444768364139933E+00
              0.366293945482274E+01
             -0.741433537391539E+00
              0.112638374050904E+01
              0.849362959220514E+00
              0.627918710955662E+00
              0.238086862228051E+01
              0.103207664832325E+01
             -0.191111134231867E-01
              0.520992453375422E+00
              0.138147023948041E+01
              0.769068903852776E+00
             -0.150037590811946E+01
              0.245092902179420E+01
             -0.230381300381290E+01
             -0.199399085022607E+00
              0.132665479921331E+01
              0.437408421028358E+00
              0.378177498989114E-01
              0.601774129903895E+00
              0.345269928939771E+00
              0.618347412139287E+00
             -0.147119066941324E+01
              0.116170494463546E+00
             -0.520432234302569E+00
              0.605943206755100E-01
             -0.464863740277472E-01
             -0.424453165480178E+00
             -0.172658090871501E+00
              0.212662260643431E+01
             -0.124795112545191E-01
             -0.764289097309113E+00
             -0.583385973504096E-01
              0.365058513354803E+00
             -0.158422816554758E+01
             -0.145058130695171E+01
             -0.735557461894530E+00
             -0.153753623122246E+01
             -0.420275923766772E+00
             -0.947347832837791E+00
              0.334618587128094E+00
             -0.414654670666748E-02
             -0.311522143561633E+00
             -0.169184568394230E+00
              0.169072028706359E+00
             -0.479798853747758E+00
              0.158821195689173E+01
             -0.218700446818008E+01
             -0.174647923757738E+00
             -0.346946947181414E+00
              0.466251347482546E+00
              0.541647453988722E+00
             -0.134469157560827E+01
             -0.194310951117035E+00
              0.115648946262052E+01
             -0.585016112173519E+00
              0.250171035773930E+00
              0.896863129505015E+00
              0.672181060403600E-01
              0.283573249225175E+01
             -0.130068066111277E+00
             -0.104093531379451E+01
             -0.224853763234486E+00
             -0.899959082575955E+00
              0.107147433568638E+01
             -0.147547192182946E+01
              0.574177125964463E+00
              0.806034698904962E+00
             -0.313225336852099E+00
              0.288238714593654E+01
              0.296503226413943E+01
             -0.204296538216826E+01
              0.142288651629000E+01
              0.630406750639765E+00
             -0.136152447416985E+01
              0.548789990269441E+00
              0.113863031217709E+01
              0.117759953624847E+01
              0.183287309533512E+00
              0.774522055256995E+00
              0.186776235323782E+01
             -0.588320111042435E+00
              0.140044694567666E+00
              0.136941306014357E+01
             -0.801293724818535E+00
             -0.695741643569573E+00
              0.161495804851875E+01
              0.848391207680622E+00
              0.187244923497321E+01
              0.103418180090660E+01
              0.430004613491532E+00
              0.430707222667037E+00
              0.119014784991392E+01
             -0.130823532459626E+01
              0.135492579880653E+00
              0.802830168995557E+00
              0.414609462898685E-01
              0.682177094619125E+00
             -0.169047890352756E+01
              0.854898632427037E+00
             -0.103298084624062E+01
             -0.782160288057071E+00
              0.511158644279259E+00
             -0.230953197623603E+00
              0.154387689675290E+01
             -0.342649743890243E+00
              0.593849814559916E+00
              0.692316706536857E+00
              0.188482983677934E+01
              0.130843440625508E+01
              0.141196200012826E+01
             -0.875582590645108E-01
             -0.316865099589248E+00
             -0.745437359692394E+00
              0.212559101564294E+01
              0.209854951059196E+01
              0.848900165341070E+00
             -0.748058509375220E+00
              0.120676689100949E+01
              0.721201249248047E-01
              0.456169245666548E+00
              0.184525919491725E+01
             -0.182292287321998E+00
             -0.317394859153083E+00
             -0.695295370416938E+00
             -0.165173919215148E+01
              0.241349404055650E+01
              0.125565637973732E+01
             -0.169110571190665E+01
             -0.540097422333513E+00
              0.472240497133956E+00
             -0.354648555233180E+00
              0.155353775812868E+01
              0.462202676391531E+00
              0.197594983169310E+01
              0.622437602664509E+00
             -0.448796323514868E+00
              0.271814833120851E+00
             -0.199529740075165E+00
             -0.484464579250115E+00
              0.477824252948523E+00
              0.503573775319245E+00
              0.223023778729434E+01
              0.176415723222781E+01
              0.154448679512733E+01
              0.184908819430204E+01
              0.305327667810267E+00
             -0.783887406600888E+00
              0.287444909663205E+00
             -0.792232625057445E+00
             -0.142221456489006E+01
             -0.126970960899864E+01
             -0.813785391875534E+00
             -0.280728491087669E+01
             -0.101298557992405E+01
             -0.206714243532592E+01
              0.393596313542230E+00
             -0.113624386301096E+01
              0.141468013733916E+01
             -0.236017589775467E+01
             -0.732869639195940E+00
              0.856848366552356E+00
              0.498417084144683E+00
             -0.219831653832067E+01
              0.119429659219733E+01
             -0.735375197698831E+00
              0.139241766104092E+01
             -0.698654214638892E+00
             -0.171280600879478E+01
              0.494805959392130E+00
             -0.142371553165221E+01
              0.113177176895451E-02
             -0.899909918770095E-01
              0.980474173416004E+00
              0.311050662867618E+01
             -0.107265230193333E+01
             -0.907761307248824E+00
             -0.406662388343019E+00
             -0.936295181870523E-01
             -0.187690515852235E+01
             -0.151182971414141E+01
              0.136214958264308E+01
             -0.301631675560919E+00
              0.554939247417158E+00
             -0.117326744865864E+01
             -0.275797576659907E+00
             -0.110065948206070E+01
              0.107628489885631E+01
              0.357054072093733E+00
             -0.721370009928226E+00
             -0.416296856342329E+00
              0.405113319392567E+00
             -0.151581994464919E+00
              0.726892221233252E+00
             -0.745211721783944E+00
              0.314169109312283E+00
              0.868216566855970E+00
              0.259509710732258E+00
             -0.682551015232304E+00
              0.389763698617709E+01
              0.155177353135937E+01
              0.263742318116399E+00
              0.907200464502349E-01
             -0.146994306488825E+01
              0.829431411495728E+00
             -0.182242304711242E+01
             -0.936164601355368E+00
             -0.167457792744623E+01
             -0.468329221429483E+00
              0.157131804665499E+01
             -0.150107785944074E+01
              0.663275235142277E+00
             -0.212312556914751E+00
             -0.258639784907118E-01
             -0.707603003981155E+00
             -0.994744450557159E+00
             -0.436389138413229E+00
             -0.735056943554161E+00
             -0.458881184209202E+00
             -0.828363372174029E+00
              0.102240479690289E-01
             -0.664485924116043E+00
             -0.108165719722019E+01
              0.581134886002752E+00
             -0.155647046318138E+00
              0.627102397984567E+00
              0.276164521353720E+00
             -0.183463090357022E+01
             -0.121337037048968E+01
             -0.139537998533191E+01
              0.647415896355096E+00
             -0.226215313276871E+00
             -0.142500679797867E+01
              0.142249335289734E+01
             -0.113086615931753E+01
              0.137527768260774E+01
             -0.741206673249558E+00
             -0.121621092161587E+01
              0.589022677092670E+00
             -0.178814144890089E+01
             -0.722461418691995E+00
              0.159734189890386E+01
              0.701673143133069E+00
             -0.100033176504437E+01
              0.155937407881738E+01
             -0.326410028797888E+00
             -0.826890479828947E+00
             -0.720265843775011E+00
             -0.144339094694647E+01
              0.686596300059918E+00
             -0.226897893795378E+01
             -0.188318409990785E+01
             -0.293656860739713E-01
             -0.715106446012900E+00
             -0.165409534684083E+01
              0.190160335852207E+01
              0.350015960624207E+01
             -0.381577467579557E+00
             -0.538900812652869E-01
             -0.160233559426998E+01
              0.165374882911139E+01
              0.518368468097951E+00
             -0.403458115793788E+00
             -0.952672277227135E+00
              0.196077147466068E+00
             -0.141616469954377E+01
             -0.798059156698239E-01
             -0.205348068226784E+01
              0.587330344248233E+00
              0.435103056494154E+00
             -0.772475681180822E-01
             -0.407317137177130E+00
             -0.101067904641025E+01
             -0.502512498431957E+00
              0.359291855355797E+01
             -0.318900510576697E+00
             -0.124678828402832E+01
             -0.169930358301691E+01
              0.385824615960435E+00
             -0.953198776801351E+00
              0.139291550383410E+00
              0.819708818806524E+00
              0.182330663835840E+00
              0.107314805657996E+01
              0.605318714706979E+00
              0.154222584643000E+01
              0.561553050259605E+00
             -0.906924540510983E+00
              0.133277456929134E+01
              0.909733774321054E+00
              0.328475588699787E+00
              0.942168378028620E+00
             -0.757025870998610E+00
              0.173175063409085E+01
              0.665276571745449E+00
             -0.869889036488229E+00
             -0.286363261297424E+00
             -0.360609084606980E+00
              0.306737747225603E+00
             -0.583369145909376E+00
             -0.385109192528540E+00
             -0.252164638876314E+00
              0.192260751959624E+01
              0.152935273295793E+01
             -0.157046658989927E+01
             -0.230537153708197E+00
             -0.126127405485942E+01
             -0.267292779392165E+00
             -0.617830282079820E+00
              0.233713452015827E+00
             -0.715531108647847E-01
             -0.746771418259982E+00
              0.364681346369600E+00
             -0.244906930916295E+00
             -0.216492295732040E+00
              0.209504041394831E+01
              0.330068612572879E+00
             -0.213224138197485E+01
             -0.111956883239461E+01
              0.235458216574013E+01
              0.429484533102028E+00
             -0.233119840431006E+00
              0.273483279588863E+01
             -0.374445226495193E+00
             -0.172919176894429E+00
             -0.532914890239137E+00
              0.407432139558917E+00
              0.875381138771407E+00
              0.133084135869552E+00
              0.750502125453650E+00
             -0.259817869242466E+00
             -0.108971240846254E+01
             -0.905829398814815E+00
             -0.119117343150680E+01
              0.117468276275815E+01
              0.439821449215157E+00
              0.956584700016129E+00
              0.530842017299824E+00
              0.226053697647178E+01
              0.403746613237890E+00
             -0.183686886227864E+01
             -0.854943396767006E+00
             -0.131010512392498E-01
             -0.712965514044805E+00
              0.157394268818662E+01
             -0.224862434250177E+00
              0.269122354655318E+00
              0.134788087715940E+01
             -0.205857649258058E+01
              0.363641470808945E+01
              0.558396458237347E+00
              0.641031742802170E+00
              0.999708879820491E+00
             -0.377833806470615E-01
             -0.148767945631523E+00
              0.735078986371770E+00
             -0.902909934890670E+00
              0.216963326250505E+01
              0.194426732980084E+01
             -0.841290619839477E+00
              0.539921033935773E+00
              0.170496137423212E+01
             -0.517655674476360E+00
              0.628050249198775E+00
              0.713707700379535E+00
              0.108297152936154E+01
             -0.171257500372395E+01
             -0.490589312929171E-01
             -0.447644427935507E+00
             -0.236959963513373E+00
             -0.340433549708490E+00
              0.277064475366835E+00
             -0.445635223095579E+00
             -0.656522336143613E+00
              0.517355849448162E+00
              0.146166567598521E+00
              0.133549102448651E+01
             -0.116717046768903E+01
              0.108804004930864E+01
              0.150054155979633E+01
             -0.569530473442681E-01
              0.151757473507024E+01
             -0.161554610171414E+01
             -0.251470458296251E+01
             -0.110434396153056E+00
             -0.325976366994691E-01
              0.225304241750193E+00
              0.187669727722750E+01
              0.160559499535248E-01
              0.103934187595333E+01
              0.156849761945216E+01
              0.107766453908320E+01
              0.887183982499629E-02
              0.152427681997093E+01
             -0.467564044611622E+00
             -0.935455854609632E+00
             -0.967357965345910E+00
              0.145099055821816E+00
              0.900715029065278E+00
             -0.146202365636856E+00
              0.858434366209842E+00
              0.829264313504412E-01
              0.121260861097013E+01
              0.299404477187170E+00
              0.168834561067117E+00
             -0.140409696799345E+00
              0.638173191600529E+00
              0.100238721581911E+01
              0.354004310295499E+00
             -0.761245062118268E-01
             -0.129620918929959E+01
              0.633807266487593E+00
              0.497122482510801E+00
              0.822408382845372E+00
              0.691273017430246E+00
              0.856485101862972E+00
             -0.143028597858391E+00
              0.865224076222680E+00
             -0.100220081796408E+01
             -0.909895756739711E-01
             -0.135973780465010E+01
             -0.856263558539263E+00
              0.112006766367921E+01
             -0.224832661133504E+01
              0.566492501800886E+00
              0.410475512755479E+00
              0.235540558599256E+01
             -0.265191403332821E+00
              0.898165702801782E+00
             -0.433275703210111E+00
             -0.118451808417796E+01
             -0.167093161061371E+01
             -0.471776630979377E+00
             -0.242004223649475E+01
              0.278535259672513E+00
             -0.574198428302482E+00
              0.824949061916344E+00
              0.810705268331436E+00
             -0.677133083354677E+00
             -0.823311065933128E+00
              0.115970364109710E+01
             -0.131415118404690E+01
             -0.399805626292451E+00
             -0.280086354302499E+00
              0.580094443915165E+00
              0.706004663969786E-01
              0.936912470268640E-01
             -0.278289532292759E+00
              0.129069542050603E+01
             -0.170938761139859E+01
              0.192797649786995E+00
              0.148201455569657E+01
             -0.736679546411280E+00
              0.849901461580393E-01
             -0.116460576443821E+00
             -0.166861117716136E+01
             -0.984151121253930E+00
              0.219221599407501E-01
              0.872466163677282E+00
              0.879312427706012E+00
              0.256691804357450E+00
             -0.239832395342626E+00
              0.320378191935154E+00
             -0.101052968569825E+01
             -0.121435170447763E+00
             -0.144047099025599E+01
             -0.708193775771951E+00
              0.120160589631838E+01
             -0.801045877734853E+00
              0.175728296983459E+01
             -0.660194938457408E+00
              0.744525484556956E+00
              0.717317469088521E+00
             -0.143157117519939E+01
             -0.620361902151203E+00
              0.215806837444996E+00
             -0.100746848167095E+01
             -0.116741198945190E+01
             -0.223882914720132E+01
             -0.145805883612701E+01
             -0.111060356146605E+01
             -0.102601442247222E+01
             -0.427899214718019E-01
              0.718704928498467E+00
              0.457447189794546E+00
              0.690475944776519E+00
             -0.154877238162021E+01
              0.230962547984024E+00
              0.931141061110909E+00
             -0.175046487653892E+01
             -0.135582523049055E+01
             -0.101995714097849E+01
             -0.861092551799923E+00
              0.269410648572978E+00
              0.338633860165380E-01
             -0.813497455123017E+00
              0.673151079446233E+00
             -0.521495240550758E+00
              0.145367868639676E+01
             -0.207915315279410E+01
              0.153349910438383E+01
             -0.299772336786644E+00
             -0.137030132428361E+01
             -0.601870499704168E+00
             -0.231010128256995E+00
              0.105563435214510E+01
             -0.165166217324324E+01
             -0.257733684863739E+00
             -0.380302117071671E+00
              0.103900912053149E+01
              0.193965238861581E+01
             -0.264402093120602E+01
              0.226324734524148E+01
              0.804970228752628E+00
             -0.190353820609361E+01
             -0.777180927818060E+00
              0.198823542687129E+01
              0.150917817623864E+01
             -0.626823845362706E+00
             -0.185161718390582E+00
              0.498664764130739E+00
              0.193063271217017E+01
             -0.147456442781973E+01
              0.362359549536777E+00
             -0.808952629239913E-01
              0.723459041845976E+00
             -0.171569842304813E+01
             -0.138828651387966E-01
             -0.654645205218278E+00
              0.113585401310582E+01
              0.827467244602044E+00
             -0.236298978747419E+01
             -0.115162331357361E+01
             -0.568259132994125E+00
             -0.101068544398849E+01
             -0.281927727585119E+00
             -0.380362771937750E+00
              0.130645576302753E+01
              0.102053653203209E+01
             -0.693395950050477E-01
             -0.942542776942791E+00
             -0.232180556005766E+01
              0.137662354209850E+01
             -0.112440956219185E+01
             -0.844136141721634E+00
              0.270320746847085E+00
             -0.919556259583668E+00
             -0.983699886438085E+00
             -0.887616869772853E+00
             -0.134999999481199E+01
             -0.403235385761031E+00
             -0.106275247353129E+01
              0.136029425459659E+01
              0.140890591835287E+01
             -0.300869183951106E+00
             -0.440771601862140E+00
             -0.510785641850831E-01
              0.888592128219827E+00
             -0.210148880197907E+01
             -0.546518572099334E+00
              0.144877367096359E+01
              0.176179101301820E+01
             -0.305771752568610E+00
              0.136286505650210E+00
              0.129681431433846E+01
              0.426185536699046E+00
              0.161575852035903E+00
             -0.748225630129392E+00
              0.301269540376595E+00
             -0.730988011022637E+00
             -0.300317473287712E+00
             -0.500510478672616E+00
             -0.338559155289699E+00
              0.651559120748877E+00
              0.216312985706351E+01
             -0.291712851926345E+00
              0.300864252992721E-01
             -0.232349084383013E+01
             -0.471716988202756E+00
             -0.843632053151410E+00
             -0.387433366488867E-01
             -0.111988330334291E+01
              0.219303424617232E+01
              0.230129996802772E+01
              0.594981734280258E+00
             -0.707475597590524E+00
              0.459086155912821E+00
              0.635540578151463E+00
             -0.110727670737371E+01
             -0.332766883695681E+00
              0.445885748606095E+00
              0.182304707012175E+00
              0.111319325466814E+01
              0.870499871034618E+00
             -0.398077945580101E+00
              0.486190264949015E+00
             -0.253221171116616E+01
             -0.676436685466855E-01
              0.229534640923358E+01
              0.587941221740847E+00
              0.146834337969519E-01
              0.631830886273726E+00
             -0.442004971067842E+00
              0.216841248124094E+01
             -0.585417212132931E+00
              0.200690466506059E+01
              0.978414089241622E+00
             -0.134808518641085E+01
              0.874431379222399E+00
             -0.632101928463093E+00
             -0.158271392663416E+01
             -0.201000765978424E+00
             -0.130880126806913E+01
             -0.142252258429798E+01
              0.720003400276790E-01
              0.918431413083374E+00
             -0.383227300362198E+00
             -0.908000000110723E+00
              0.144875291849521E+00
             -0.159883360199062E+01
              0.110186525013529E-01
             -0.235210817410054E+01
              0.127970462410749E+01
             -0.744844280614492E-01
             -0.117910031068494E+01
             -0.521781408818210E+00
              0.390626119985812E+00
             -0.970993381355880E+00
             -0.994146731140115E+00
              0.223065895416293E+01
             -0.719710876771501E+00
             -0.101524187706882E+01
              0.101411197730267E+01
             -0.670357961468504E+00
              0.131524104773641E+01
              0.211995900303279E-01
             -0.911523499892271E-01
              0.274421201504078E+01
             -0.237512631616141E+00
             -0.891051219023186E+00
             -0.106922728186003E+01
             -0.141082988888044E+01
             -0.969010579209366E+00
              0.555226807046878E+00
              0.886346938301536E+00
              0.784997911600165E+00
              0.174894170407108E+01
              0.721339785121007E-01
              0.602527729033477E+00
             -0.145574613313587E+01
             -0.762904081750770E-01
             -0.478298126509673E+00
             -0.941798922849015E+00
             -0.573530362589256E-01
              0.763213049666916E+00
              0.101174395881454E+01
             -0.158199718630844E+00
              0.300761790929101E+00
              0.782924660011463E+00
              0.915434586436388E+00
             -0.399242400036610E+00
             -0.170402781082884E+00
             -0.457556101383911E-01
             -0.767681151063909E+00
             -0.189610879536107E+00
             -0.100544681099414E+01
              0.191732025244542E+01
              0.157759387849372E+01
             -0.731331597188163E+00
              0.477764017025469E+00
             -0.203636082965768E+00
             -0.864088023450099E+00
              0.895517345616743E+00
             -0.225443366480925E+00
              0.676823343844661E+00
             -0.107219815345117E+01
              0.386100904120393E+00
             -0.275449817917094E+00
             -0.126015589189999E+01
             -0.696994894867160E+00
              0.499618092622465E+00
             -0.262461929155477E+01
              0.715388061059762E+00
              0.106353534252868E+01
             -0.231784846253136E+00
             -0.149320082098685E+00
             -0.741540542303047E-01
              0.533141316862531E+00
             -0.959443096901674E+00
              0.830488086064638E+00
              0.710055633187586E+00
             -0.232514357419723E+01
             -0.812154356300002E+00
              0.628095377860990E+00
[...]
             -0.121633186346571E+01
              0.846994951013226E+00
              0.215189190274360E+00
              0.771698581293195E+00
              0.159511985075365E+00
              0.174954215070822E+01
             -0.199470778979583E+01
             -0.118807079758697E+01
             -0.327579530299581E+00
             -0.215517439003368E+01
              0.349545049497423E+00
              0.107396535233993E+01
             -0.152296815157915E+00
             -0.526568683271609E+00
              0.510955242154440E+00
              0.334590711468457E+01
              0.878267347001550E+00
              0.369174458754166E+00
             -0.112286132702450E+01
             -0.142247210473660E+01
             -0.503510156781778E+00
              0.691569319004339E+00
             -0.119543984197357E+00
              0.829377061884297E+00
              0.981579912771688E+00
             -0.150575356898492E+01
              0.650705349260016E+00
              0.714086734897402E+00
              0.132895671351263E+01
             -0.322079956230432E+00
              0.543489404671105E-01
             -0.194173192613298E+00
             -0.111722910346289E+01
             -0.195619337689894E+01
              0.174594368839624E+01
             -0.153090924665784E+00
             -0.119255666795028E+01
              0.205442971083051E+00
             -0.879170092431011E+00
              0.213693070427590E+01
             -0.610129270835946E+00
             -0.982206312141500E+00
              0.112085789676153E+01
             -0.267208399768531E+00
              0.111430687929453E+01
              0.165088962027236E+00
              0.221041068542072E+01
              0.112377554531388E+01
              0.401005115134250E+00
             -0.958224382503059E+00
              0.637100962204766E+00
             -0.129276892674104E+01
             -0.919806651164734E-02
              0.177432648367162E+01
             -0.569216084782150E+00
             -0.103866787441263E+01
             -0.526194387564605E+00
              0.135642184635284E+01
              0.163077923723166E+00
             -0.202879303769594E+01
              0.959607796500199E+00
              0.138085846794523E+00
              0.328125518415668E+00
             -0.134159060616681E+01
              0.410109777847343E+00
              0.858238511151085E+00
              0.113562765549919E+01
              0.158932403988450E+01
              0.103049101776608E+01
              0.113191511568936E+00
             -0.147364985560144E+01
             -0.105267135242936E+01
             -0.153091413884972E+01
             -0.337497800104186E+00
              0.104407890911161E+01
             -0.127401735422677E+00
              0.143187202465400E+01
             -0.727738055400089E+00
              0.370161366766451E+00
             -0.803576291315221E+00
             -0.633052865987390E+00
              0.145142458124202E+01
              0.184267408614684E+00
              0.146492753478851E+01
              0.108390219429838E+00
              0.499352669630741E+00
             -0.340282795651270E+00
              0.136318882089242E+01
             -0.430604231390314E+00
              0.688010066856756E-01
             -0.199151925767429E+01
             -0.214760081310137E+00
              0.174279024334397E+01
              0.167305152185175E+01
              0.495129124242992E+00
             -0.142588391987948E+00
              0.181863289970812E+00
             -0.673695846290428E+00
             -0.497775958715780E+00
              0.217086501833965E+01
              0.333127214737248E+00
             -0.589689639910853E+00
             -0.256429310315523E+01
             -0.970111776391640E+00
             -0.986174385518857E+00
             -0.124080980695254E+01
             -0.158460183947099E+01
             -0.182194513293120E+01
             -0.110181284172218E+01
             -0.759185029955749E+00
             -0.104942619673256E+01
              0.111520086523296E+01
             -0.510261570160294E+00
             -0.206882729954693E+01
              0.112894994127492E+01
             -0.973292192026287E+00
             -0.183942842443586E+01
              0.260181067240800E+01
             -0.600372244632632E+00
              0.395521869029018E+00
              0.100432776438902E+01
              0.518947957510859E+00
              0.663682070046524E+00
              0.764819304843201E-02
              0.520628992687135E-01
             -0.412010860164682E+00
             -0.182108138724283E+01
              0.244601491576970E+00
             -0.299132773642869E+01
              0.189864631692251E+01
             -0.954793534851686E+00
             -0.430839663474265E+00
             -0.499064097587478E+00
              0.705723413426072E+00
             -0.518727541325016E+00
              0.663465088102229E+00
             -0.136751712281328E+01
              0.100623354687017E+01
              0.113768389801602E+01
              0.184599614607710E+00
              0.303759926704523E+00
              0.510318163488392E+00
              0.138332216793758E+00
              0.855063407251688E+00
             -0.344996088322871E-01
             -0.184504108449239E+01
              0.217566106957477E+00
             -0.104392005905947E+01
              0.830850953887605E-01
              0.147738455202010E+01
             -0.211410585227279E+01
              0.156733006910487E+00
              0.129625714558616E+00
              0.301006300160131E+00
              0.676696169593956E+00
             -0.408482451865616E+00
              0.215201262488709E+01
              0.738216369919871E+00
             -0.248630234626792E+00
             -0.181000164052339E+00
              0.158818539661017E+00
              0.201611337281732E+01
             -0.116072131459082E+01
             -0.255549722059992E+01
              0.835528149492597E+00
             -0.115493758631452E+00
             -0.504810928711960E+00
              0.452769971452302E+00
              0.174811647925690E+01
              0.914024977679867E+00
             -0.497398926332461E+00
             -0.142359446519924E+01
             -0.416848286059839E+00
              0.638512128265159E+00
             -0.457513904856202E+00
             -0.201599190177964E+01
             -0.321979731613432E+00
             -0.243583516614242E+01
             -0.121127554208759E+01
              0.228392466418294E+01
             -0.133289290557844E+01
             -0.171812470154135E+01
             -0.148318713622349E+01
             -0.109174141808234E+01
              0.940930988573824E+00
              0.209133595474722E+01
             -0.390283411000399E+00
              0.684271477512740E+00
             -0.467601076919942E+00
             -0.159159660090638E+01
              0.155604434732024E+01
             -0.118969735117720E+01
              0.647057745318188E+00
              0.505545668648832E+00
             -0.402964850889891E+00
              0.806577138647901E+00
              0.846971261887038E+00
              0.312310437911363E+01
             -0.312513872102450E+00
             -0.152359391382286E+01
             -0.173932409783369E+01
             -0.378641536516342E+00
             -0.119727432445209E+01
              0.241288938891802E+01
             -0.136869371776552E+01
              0.131066691727331E+00
              0.488647602669792E-01
             -0.452786225173557E+00
             -0.208452601136016E+01
             -0.219116008685177E+00
              0.257186457834827E+01
              0.563296453299644E+00
              0.151944052463364E+00
             -0.142188670291284E+01
             -0.124120520200805E+01
             -0.447418147180843E+00
              0.116160645744472E+01
             -0.703597755382141E+00
              0.247376624180967E+01
             -0.126092904700869E+01
              0.345672484357282E+00
             -0.364579629150326E+00
             -0.153405409490847E+01
              0.155814936144655E+00
             -0.158876709864389E+01
             -0.186843512568914E+01
              0.150940256516657E+00
             -0.263203692425757E-01
              0.110628816730834E+01
              0.655934941243447E+00
             -0.983158793544620E+00
              0.501779779336005E+00
             -0.219773234752467E+01
             -0.117251180866275E+01
              0.244394405387294E+01
             -0.190150402815068E+00
             -0.200238488365061E+00
             -0.470697590917644E+00
              0.143452307548026E+00
             -0.354174162643627E+00
              0.243433904106580E+01
              0.109164345692887E+01
             -0.175703572228425E+00
             -0.366808227442794E-01
             -0.959126640187674E+00
             -0.116358426226063E+00
             -0.150793985671616E+01
              0.143022271934782E+01
              0.218204396775894E+00
              0.263310783887224E+00
              0.456944096097664E+00
             -0.484694653659837E+00
             -0.622886413779701E+00
              0.242826345611773E+00
             -0.273273390010427E+01
             -0.202169154896332E+00
             -0.279116709468251E+00
             -0.142488621650895E+00
              0.112266278719996E+01
              0.158991458829939E+01
              0.498664957555484E+00
             -0.227269038866309E+01
              0.162921897284708E+01
             -0.695744096218965E+00
             -0.826674101409058E+00
             -0.205337911732259E+01
             -0.751051033854050E+00
              0.155512456838614E+01
              0.944151567998551E+00
              0.615104489202886E+00
              0.800295733625126E+00
             -0.138138152652961E+01
             -0.111312953629321E+01
              0.177534692677243E+01
              0.106159481327599E+01
              0.110473766116657E+01
              0.382965496886070E+00
              0.342003963762435E+00
              0.131295002331474E+01
              0.239057432232472E+01
             -0.493520177157165E+00
              0.889506374156589E+00
             -0.729107070810352E+00
             -0.104614298226261E+01
             -0.821379220130082E+00
             -0.790920528267429E+00
             -0.358826225875283E+00
             -0.110455862632129E+01
             -0.485507175509828E+00
             -0.304471393387178E+01
              0.949214329654214E+00
              0.839133651216685E+00
             -0.440771458647087E-01
             -0.708755798658043E+00
             -0.296701955675152E+00
             -0.141010101663018E+01
              0.172442634865278E+00
              0.195297360983788E+01
             -0.527830097207794E+00
             -0.539522103645258E+00
              0.294168127734284E+00
             -0.138641437216242E+01
              0.221224155011580E+01
              0.412158409397821E+00
              0.718030114520367E-01
              0.129172616507604E+01
             -0.239131258291318E+00
              0.150898245307807E+01
              0.513631082511498E+00
             -0.113103750707549E+00
              0.445876850909309E+00
             -0.373218689344134E+00
              0.182110465744489E+01
              0.177449234429568E+00
              0.587429912219586E+00
             -0.245502248833907E+00
              0.200723527350456E+00
             -0.235232768534284E+01
             -0.744474795605447E+00
             -0.127834176103419E+01
              0.126283487449937E+01
             -0.100059978141758E+01
             -0.132023930636969E+01
              0.130369457910947E+01
             -0.393168193957296E+00
              0.114189715855103E+01
             -0.202815900313341E+01
              0.487416225491294E+00
             -0.320236583257604E-01
              0.226160134871256E+00
             -0.418124180684033E+00
             -0.689378232611109E-01
              0.126233212232517E+01
              0.700962376299126E-01
             -0.127458463428261E+01
             -0.743021681829430E+00
              0.277360570714663E+00
             -0.304344255703423E+01
             -0.218376419301989E+01
              0.814624891631635E-01
              0.383998808261892E+00
             -0.151027144983501E+01
              0.871128865504920E-01
              0.267294357217107E+01
              0.528286728637452E+00
             -0.149688407680171E+01
              0.667635512698976E-01
             -0.176794492844374E+00
              0.461635205351486E+00
             -0.942011891418971E+00
              0.628650861296997E+00
              0.509220595106556E+00
             -0.141745092692929E+00
              0.275388327578076E+01
             -0.203644963890660E+00
             -0.633074912852200E+00
              0.706238447089490E+00
              0.121371921897476E+01
             -0.818569302831547E+00
              0.763168290744488E-01
              0.258346387556936E+01
             -0.623608424206257E-01
              0.111139789199059E+01
              0.453250867153504E+00
             -0.112841081302401E+00
             -0.283698508721218E+00
              0.973284995098247E+00
             -0.134499630940001E+01
             -0.114689275149688E+00
             -0.557076481696512E+00
             -0.103798582477705E+01
              0.208431600846096E+00
              0.668842494426719E+00
             -0.190177321564350E+00
             -0.405768574219056E-01
             -0.100638750996014E+01
              0.246187759441876E+00
             -0.148893707041911E+00
             -0.461614748471734E+00
             -0.493589358895690E+00
              0.426942339350230E+00
              0.441497184025863E-03
             -0.100706869256232E+01
             -0.263400089039131E+01
              0.311019690585934E-01
              0.341539610815342E+00
             -0.107401437755670E+01
             -0.778753116814801E+00
              0.203707793284238E+01
              0.341429741765186E+00
              0.988245301287749E+00
              0.225215486616258E+00
              0.822251183069626E+00
             -0.209851140648176E-01
             -0.942455148484693E+00
             -0.334504832577018E+00
              0.147510415318465E+00
              0.662831283530880E+00
              0.170583285581642E+01
              0.125033122687961E+01
             -0.278028170047717E-01
              0.214173045867605E+00
              0.159413556550335E+01
              0.656030779280353E+00
             -0.183021703729441E+01
             -0.719514632542489E+00
              0.376068628059674E+00
              0.261977927900910E+00
              0.539581073366564E+00
             -0.130059667997190E+01
             -0.343742669007063E-01
              0.986097976860929E+00
              0.116606350428981E+01
             -0.941970850455668E+00
              0.734633152015096E-02
              0.451284355103470E-01
             -0.528361181167858E+00
             -0.469629007268197E+00
             -0.160095979363954E+00
             -0.426928471148643E+00
              0.325428439861931E+00
              0.104292601529785E+01
             -0.689850171507895E+00
              0.219007612605643E+01
              0.608055016311907E+00
              0.575389043340788E+00
              0.112422136716737E+01
              0.555134142933045E+00
              0.953836800203572E+00
              0.139249582512769E+01
             -0.120884683249390E+01
              0.165962793112700E+01
             -0.286495165127244E+01
              0.747935898464955E+00
             -0.252617839858105E+01
              0.191104392852708E+01
              0.193656629795846E+01
             -0.150805816121150E+00
             -0.113987691359391E+01
             -0.121861390253009E+01
             -0.135555729830491E+01
             -0.174223636972173E+01
              0.128371365615349E+01
              0.105671964642177E+01
              0.542831780997372E+00
              0.687907811108619E+00
              0.105234482078764E+01
             -0.110619134116754E+01
             -0.293258221296210E+00
              0.146442036396298E+01
             -0.369126986491238E+00
              0.129610690960040E+01
              0.198940996799443E+01
             -0.119849131164530E+00
             -0.198420934214047E+01
              0.266386191291549E+00
              0.895428193663515E-01
             -0.161284090481304E+00
              0.325571928723196E-01
             -0.170217866483308E+01
             -0.152527877217924E+00
              0.519204418897897E+00
              0.435157205466559E+00
              0.122779789582756E+01
             -0.928660762389478E+00
              0.134158854243913E+01
             -0.931129274279740E+00
              0.672131179352023E+00
              0.115353094147852E+01
 BEEF xc energy contributions
           1 :   -15.5582602544945     
           2 :    10.3938149421685     
           3 :   -4.68670608031303     
           4 :    1.15998363955945     
           5 :   0.259984240810716     
           6 :  -0.441757922237027     
           7 :   0.186748401715152     
           8 :   5.887328150908283E-002
           9 :  -0.103360163109746     
          10 :  -7.719461649417503E-003
          11 :   0.102439456658165     
          12 :  -0.113889368496708     
          13 :   9.534118118160072E-002
          14 :  -6.908838188558114E-002
          15 :   4.897889322737707E-002
          16 :  -4.635871380163167E-002
          17 :   4.757570340680776E-002
          18 :  -4.839428669236603E-002
          19 :   4.452142886463999E-002
          20 :  -3.652650606090785E-002
          21 :   2.730953996759623E-002
          22 :  -2.663292662443854E-002
          23 :   3.956746976724235E-002
          24 :  -4.483287373794365E-002
          25 :   3.697645819759418E-002
          26 :  -2.443877697931377E-002
          27 :   1.752354520195284E-002
          28 :  -2.189127932425846E-002
          29 :   2.984188389764003E-002
          30 :  -3.501139446025753E-002
          31 :   -2.58105205005068     
          32 :   -1.19554292395093     
    POTLOK:  cpu time   33.5848: real time   33.6017


--------------------------------------------------------------------------------------------------------


 stress matrix after NEB project (eV)
     -0.05776      0.00000     -0.00000
      0.00000     -0.05776      0.00000
     -0.00000      0.00000     -0.05945
  FORCES: max atom, RMS     0.010493    0.010493
  FORCE total and by dimension    0.014839    0.010493
  Stress total and by dimension    0.101021    0.059446


--------------------------------------------------------------------------------------------------------


  
 reached required accuracy - stopping structural energy minimisation
 writing wavefunctions
     LOOP+:  cpu time   77.9252: real time   78.0317
    4ORBIT:  cpu time    0.0000: real time    0.0000

 total amount of memory used by VASP MPI-rank0   107286. kBytes
=======================================================================

   base      :      30000. kBytes
   nonl-proj :       1319. kBytes
   fftplans  :      31190. kBytes
   grid      :      44190. kBytes
   one-center:          1. kBytes
   wavefun   :        586. kBytes
 
  
  
 General timing and accounting informations for this job:
 ========================================================
  
                  Total CPU time used (sec):      414.262
                            User time (sec):      404.008
                          System time (sec):       10.254
                         Elapsed time (sec):      417.384
  
                   Maximum memory used (kb):      597564.
                   Average memory used (kb):           0.
  
                          Minor page faults:       520038
                          Major page faults:          212
                 Voluntary context switches:        24701
