<?xml version="1.0" encoding="ISO-8859-1"?>
<modeling>
 <generator>
  <i name="program" type="string">vasp </i>
  <i name="version" type="string">5.4.4.18Apr17-6-g9f103f2a35  </i>
  <i name="subversion" type="string">(build Oct 12 2018 15:21:48) complex            parallel </i>
  <i name="platform" type="string">LinuxIFC </i>
  <i name="date" type="string">2019 08 02 </i>
  <i name="time" type="string">10:26:41 </i>
 </generator>
 <incar>
  <i type="int" name="ISTART">     1</i>
  <i type="string" name="PREC">accurate</i>
  <i type="string" name="ALGO"> Normal</i>
  <i type="int" name="NELM">   350</i>
  <i type="int" name="IBRION">     2</i>
  <i name="EDIFF">      0.00010000</i>
  <i name="EDIFFG">     -0.02500000</i>
  <i type="int" name="NSW">   200</i>
  <i name="ENCUT">    500.00000000</i>
  <i type="int" name="ISMEAR">    -1</i>
  <i name="SIGMA">      0.10000000</i>
  <i type="logical" name="LBEEFENS"> T  </i>
  <v type="int" name="KPOINT_BSE">    -1     0     0     0</v>
  <i type="int" name="NELM">   350</i>
  <i type="string" name="GGA"> BF</i>
  <i type="logical" name="LUSE_VDW"> T  </i>
  <i name="Zab_VDW">     -1.88670000</i>
  <i type="logical" name="LDIPOL"> F  </i>
 </incar>
 <structure name="primitive_cell" >
  <crystal>
   <varray name="basis" >
    <v>      14.00000000       0.00000000       0.00000000 </v>
    <v>       0.00000000      14.00000000       0.00000000 </v>
    <v>       0.00000000       0.00000000      14.73716600 </v>
   </varray>
   <i name="volume">   2888.48453600 </i>
   <varray name="rec_basis" >
    <v>       0.07142857       0.00000000       0.00000000 </v>
    <v>       0.00000000       0.07142857       0.00000000 </v>
    <v>       0.00000000       0.00000000       0.06785565 </v>
   </varray>
  </crystal>
  <varray name="positions" >
   <v>      -0.50000000      -0.50000000      -0.47498956 </v>
   <v>      -0.50000000      -0.50000000       0.47498956 </v>
  </varray>
 </structure>
 <varray name="primitive_index" >
  <v type="int" >        1 </v>
  <v type="int" >        2 </v>
 </varray>
 <kpoints>
  <generation param="Monkhorst-Pack">
   <v type="int" name="divisions">       1        1        1 </v>
   <v name="usershift">      0.00000000       0.00000000       0.00000000 </v>
   <v name="genvec1">      1.00000000       0.00000000       0.00000000 </v>
   <v name="genvec2">      0.00000000       1.00000000       0.00000000 </v>
   <v name="genvec3">      0.00000000       0.00000000       1.00000000 </v>
   <v name="shift">      0.00000000       0.00000000       0.00000000 </v>
  </generation>
  <varray name="kpointlist" >
   <v>       0.00000000       0.00000000       0.00000000 </v>
  </varray>
  <varray name="weights" >
   <v>       1.00000000 </v>
  </varray>
 </kpoints>
 <parameters>
  <separator name="general" >
   <i type="string" name="SYSTEM">unknown system</i>
   <i type="logical" name="LCOMPAT"> F  </i>
  </separator>
  <separator name="electronic" >
   <i type="string" name="PREC">accura</i>
   <i name="ENMAX">    500.00000000</i>
   <i name="ENAUG">    400.00000000</i>
   <i name="EDIFF">      0.00010000</i>
   <i type="int" name="IALGO">    38</i>
   <i type="int" name="IWAVPR">    11</i>
   <i type="int" name="NBANDS">     8</i>
   <i name="NELECT">      2.00000000</i>
   <i type="int" name="TURBO">     0</i>
   <i type="int" name="IRESTART">     0</i>
   <i type="int" name="NREBOOT">     0</i>
   <i type="int" name="NMIN">     0</i>
   <i name="EREF">      0.00000000</i>
   <separator name="electronic smearing" >
    <i type="int" name="ISMEAR">    -1</i>
    <i name="SIGMA">      0.10000000</i>
    <i name="KSPACING">      0.50000000</i>
    <i type="logical" name="KGAMMA"> T  </i>
   </separator>
   <separator name="electronic projectors" >
    <i type="logical" name="LREAL"> F  </i>
    <v name="ROPT">      0.00000000</v>
    <i type="int" name="LMAXPAW">  -100</i>
    <i type="int" name="LMAXMIX">     2</i>
    <i type="logical" name="NLSPLINE"> F  </i>
   </separator>
   <separator name="electronic startup" >
    <i type="int" name="ISTART">     0</i>
    <i type="int" name="ICHARG">     2</i>
    <i type="int" name="INIWAV">     1</i>
   </separator>
   <separator name="electronic spin" >
    <i type="int" name="ISPIN">     1</i>
    <i type="logical" name="LNONCOLLINEAR"> F  </i>
    <v name="MAGMOM">      1.00000000      1.00000000</v>
    <i name="NUPDOWN">     -1.00000000</i>
    <i type="logical" name="LSORBIT"> F  </i>
    <v name="SAXIS">      0.00000000      0.00000000      1.00000000</v>
    <i type="logical" name="LSPIRAL"> F  </i>
    <v name="QSPIRAL">      0.00000000      0.00000000      0.00000000</v>
    <i type="logical" name="LZEROZ"> F  </i>
   </separator>
   <separator name="electronic exchange-correlation" >
    <i type="logical" name="LASPH"> F  </i>
    <i type="logical" name="LMETAGGA"> F  </i>
   </separator>
   <separator name="electronic convergence" >
    <i type="int" name="NELM">   350</i>
    <i type="int" name="NELMDL">     0</i>
    <i type="int" name="NELMIN">     2</i>
    <i name="ENINI">    500.00000000</i>
    <separator name="electronic convergence detail" >
     <i type="logical" name="LDIAG"> T  </i>
     <i type="logical" name="LSUBROT"> F  </i>
     <i name="WEIMIN">      0.00100000</i>
     <i name="EBREAK">      0.00000313</i>
     <i name="DEPER">      0.30000000</i>
     <i type="int" name="NRMM">     4</i>
     <i name="TIME">      0.40000000</i>
    </separator>
   </separator>
   <separator name="electronic mixer" >
    <i name="AMIX">      0.40000000</i>
    <i name="BMIX">      1.00000000</i>
    <i name="AMIN">      0.10000000</i>
    <i name="AMIX_MAG">      1.60000000</i>
    <i name="BMIX_MAG">      1.00000000</i>
    <separator name="electronic mixer details" >
     <i type="int" name="IMIX">     4</i>
     <i type="logical" name="MIXFIRST"> F  </i>
     <i type="int" name="MAXMIX">   -45</i>
     <i name="WC">    100.00000000</i>
     <i type="int" name="INIMIX">     1</i>
     <i type="int" name="MIXPRE">     1</i>
     <i type="int" name="MREMOVE">     5</i>
    </separator>
   </separator>
   <separator name="electronic dipolcorrection" >
    <i type="logical" name="LDIPOL"> F  </i>
    <i type="logical" name="LMONO"> F  </i>
    <i type="int" name="IDIPOL">     0</i>
    <i name="EPSILON">      1.00000000</i>
    <v name="DIPOL">   -100.00000000   -100.00000000   -100.00000000</v>
    <i name="EFIELD">      0.00000000</i>
   </separator>
  </separator>
  <separator name="grids" >
   <i type="int" name="NGX">   108</i>
   <i type="int" name="NGY">   108</i>
   <i type="int" name="NGZ">   108</i>
   <i type="int" name="NGXF">   216</i>
   <i type="int" name="NGYF">   216</i>
   <i type="int" name="NGZF">   216</i>
   <i type="logical" name="ADDGRID"> F  </i>
  </separator>
  <separator name="ionic" >
   <i type="int" name="NSW">   200</i>
   <i type="int" name="IBRION">     2</i>
   <i type="int" name="MDALGO">     0</i>
   <i type="int" name="ISIF">     2</i>
   <i name="PSTRESS">      0.00000000</i>
   <i name="EDIFFG">     -0.02500000</i>
   <i type="int" name="NFREE">     1</i>
   <i name="POTIM">      0.50000000</i>
   <i name="SMASS">     -3.00000000</i>
   <i name="SCALEE">      1.00000000</i>
  </separator>
  <separator name="ionic md" >
   <i name="TEBEG">      0.00010000</i>
   <i name="TEEND">      0.00010000</i>
   <i type="int" name="NBLOCK">     1</i>
   <i type="int" name="KBLOCK">   200</i>
   <i type="int" name="NPACO">   256</i>
   <i name="APACO">     16.00000000</i>
  </separator>
  <separator name="symmetry" >
   <i type="int" name="ISYM">     2</i>
   <i name="SYMPREC">      0.00001000</i>
  </separator>
  <separator name="dos" >
   <i type="int" name="LORBIT">     0</i>
   <v name="RWIGS">     -1.00000000</v>
   <i type="int" name="NEDOS">   301</i>
   <i name="EMIN">     10.00000000</i>
   <i name="EMAX">    -10.00000000</i>
   <i name="EFERMI">      0.00000000</i>
  </separator>
  <separator name="writing" >
   <i type="int" name="NWRITE">     2</i>
   <i type="logical" name="LWAVE"> T  </i>
   <i type="logical" name="LDOWNSAMPLE"> F  </i>
   <i type="logical" name="LCHARG"> T  </i>
   <i type="logical" name="LPARD"> F  </i>
   <i type="logical" name="LVTOT"> F  </i>
   <i type="logical" name="LVHAR"> F  </i>
   <i type="logical" name="LELF"> F  </i>
   <i type="logical" name="LOPTICS"> F  </i>
   <v name="STM">      0.00000000      0.00000000      0.00000000      0.00000000      0.00000000      0.00000000      0.00000000</v>
  </separator>
  <separator name="performance" >
   <i type="int" name="NPAR">     4</i>
   <i type="int" name="NSIM">     4</i>
   <i type="int" name="NBLK">    -1</i>
   <i type="logical" name="LPLANE"> T  </i>
   <i type="logical" name="LSCALAPACK"> T  </i>
   <i type="logical" name="LSCAAWARE"> F  </i>
   <i type="logical" name="LSCALU"> F  </i>
   <i type="logical" name="LASYNC"> F  </i>
   <i type="logical" name="LORBITALREAL"> F  </i>
  </separator>
  <separator name="miscellaneous" >
   <i type="int" name="IDIOT">     3</i>
   <i type="int" name="ISPECIAL">     0</i>
   <i type="logical" name="LMUSIC"> F  </i>
   <v name="POMASS">      1.00000000</v>
   <v name="DARWINR">      0.00000000</v>
   <v name="DARWINV">      1.00000000</v>
   <i type="logical" name="LCORR"> T  </i>
  </separator>
  <i type="logical" name="GGA_COMPAT"> T  </i>
  <i type="logical" name="LBERRY"> F  </i>
  <i type="int" name="ICORELEVEL">     0</i>
  <i type="logical" name="LDAU"> F  </i>
  <i type="int" name="I_CONSTRAINED_M">     0</i>
  <separator name="electronic exchange-correlation" >
   <i type="string" name="GGA">BF</i>
   <i type="int" name="VOSKOWN">     0</i>
   <i type="logical" name="LHFCALC"> F  </i>
   <i type="string" name="PRECFOCK"></i>
   <i type="logical" name="LSYMGRAD"> F  </i>
   <i type="logical" name="LHFONE"> F  </i>
   <i type="logical" name="LRHFCALC"> F  </i>
   <i type="logical" name="LTHOMAS"> F  </i>
   <i type="logical" name="LMODELHF"> F  </i>
   <i name="ENCUT4O">     -1.00000000</i>
   <i type="int" name="EXXOEP">     0</i>
   <i type="int" name="FOURORBIT">     0</i>
   <i name="AEXX">      0.00000000</i>
   <i name="HFALPHA">      0.00000000</i>
   <i name="MCALPHA">      0.00000000</i>
   <i name="ALDAX">      1.00000000</i>
   <i name="AGGAX">      1.00000000</i>
   <i name="ALDAC">      1.00000000</i>
   <i name="AGGAC">      1.00000000</i>
   <i type="int" name="NKREDX">     1</i>
   <i type="int" name="NKREDY">     1</i>
   <i type="int" name="NKREDZ">     1</i>
   <i type="logical" name="SHIFTRED"> F  </i>
   <i type="logical" name="ODDONLY"> F  </i>
   <i type="logical" name="EVENONLY"> F  </i>
   <i type="int" name="LMAXFOCK">     0</i>
   <i type="int" name="NMAXFOCKAE">     0</i>
   <i type="logical" name="LFOCKAEDFT"> F  </i>
   <i name="HFSCREEN">      0.00000000</i>
   <i name="HFSCREENC">      0.00000000</i>
   <i type="int" name="NBANDSGWLOW">     0</i>
  </separator>
  <separator name="vdW DFT" >
   <i type="logical" name="LUSE_VDW"> T  </i>
   <i name="Zab_VDW">     -1.88670000</i>
   <i name="PARAM1">      0.12340000</i>
   <i name="PARAM2">      1.00000000</i>
   <i name="PARAM3">      0.00000000</i>
  </separator>
  <separator name="model GW" >
   <i type="int" name="MODEL_GW">     0</i>
   <i name="MODEL_EPS0">    866.54536080</i>
   <i name="MODEL_ALPHA">      1.00000000</i>
  </separator>
  <separator name="linear response parameters" >
   <i type="logical" name="LEPSILON"> F  </i>
   <i type="logical" name="LRPA"> F  </i>
   <i type="logical" name="LNABLA"> F  </i>
   <i type="logical" name="LVEL"> F  </i>
   <i type="int" name="KINTER">     0</i>
   <i name="CSHIFT">      0.10000000</i>
   <i name="OMEGAMAX">     -1.00000000</i>
   <i name="DEG_THRESHOLD">      0.00200000</i>
   <i name="RTIME">     -0.10000000</i>
   <i name="WPLASMAI">      0.00000000</i>
   <v name="DFIELD">      0.00000000      0.00000000      0.00000000</v>
   <v name="WPLASMA">      0.00000000      0.00000000      0.00000000      0.00000000      0.00000000      0.00000000      0.00000000      0.00000000      0.00000000</v>
  </separator>
  <separator name="orbital magnetization" >
   <i type="logical" name="NUCIND"> F  </i>
   <v name="MAGPOS">      0.00000000      0.00000000      0.00000000</v>
   <i type="logical" name="LNICSALL"> T  </i>
   <i type="logical" name="ORBITALMAG"> F  </i>
   <i type="logical" name="LMAGBLOCH"> F  </i>
   <i type="logical" name="LCHIMAG"> F  </i>
   <i type="logical" name="LGAUGE"> T  </i>
   <i type="int" name="MAGATOM">     0</i>
   <v name="MAGDIPOL">      0.00000000      0.00000000      0.00000000</v>
   <v name="AVECCONST">      0.00000000      0.00000000      0.00000000</v>
  </separator>
  <separator name="response functions" >
   <i type="logical" name="LADDER"> F  </i>
   <i type="logical" name="LRPAFORCE"> F  </i>
   <i type="logical" name="LFXC"> F  </i>
   <i type="logical" name="LHARTREE"> T  </i>
   <i type="int" name="IBSE">     0</i>
   <v type="int" name="KPOINT">    -1     0     0     0</v>
   <i type="logical" name="LTCTE"> F  </i>
   <i type="logical" name="LTETE"> F  </i>
   <i type="logical" name="LTRIPLET"> F  </i>
   <i type="logical" name="LFXCEPS"> F  </i>
   <i type="logical" name="LFXHEG"> F  </i>
   <i type="int" name="NATURALO">     2</i>
   <i type="logical" name="L2ORDER"> F  </i>
   <i type="logical" name="LMP2LT"> F  </i>
   <i type="logical" name="LUSEW"> F  </i>
   <i name="ENCUTGW">     -2.00000000</i>
   <i name="ENCUTGWSOFT">     -2.00000000</i>
   <i name="ENCUTLF">     -1.00000000</i>
   <i type="int" name="LMAXMP2">    -1</i>
   <i name="SCISSOR">      0.00000000</i>
   <i type="int" name="NOMEGA">     0</i>
   <i type="int" name="NOMEGAR">     0</i>
   <i type="int" name="NBANDSGW">    -1</i>
   <i type="int" name="NBANDSO">    -1</i>
   <i type="int" name="NBANDSV">    -1</i>
   <i type="int" name="NELM">   350</i>
   <i type="int" name="NELMHF">     1</i>
   <i type="int" name="DIM">     3</i>
   <i type="int" name="ANTIRES">     0</i>
   <i name="OMEGAMAX">    -30.00000000</i>
   <i name="OMEGAMIN">    -30.00000000</i>
   <i name="OMEGATL">   -200.00000000</i>
   <i type="int" name="OMEGAGRID">   140</i>
   <i name="CSHIFT">     -0.10000000</i>
   <i type="logical" name="SELFENERGY"> F  </i>
   <i type="logical" name="LSPECTRAL"> F  </i>
   <i type="logical" name="LSPECTRALGW"> F  </i>
   <i type="logical" name="LSINGLES"> F  </i>
   <i type="logical" name="LFERMIGW"> F  </i>
   <i type="logical" name="ODDONLYGW"> F  </i>
   <i type="logical" name="EVENONLYGW"> F  </i>
   <i type="int" name="NKREDLFX">     1</i>
   <i type="int" name="NKREDLFY">     1</i>
   <i type="int" name="NKREDLFZ">     1</i>
   <i type="int" name="MAXMEM">  2800</i>
   <i type="int" name="TELESCOPE">     0</i>
   <i type="int" name="TAUPAR">     1</i>
   <i type="int" name="OMEGAPAR">    -1</i>
   <i name="LAMBDA">      1.00000000</i>
  </separator>
  <separator name="External order field" >
   <i name="OFIELD_KAPPA">      0.00000000</i>
   <v name="OFIELD_K">      0.00000000      0.00000000      0.00000000</v>
   <i name="OFIELD_Q6_NEAR">      0.00000000</i>
   <i name="OFIELD_Q6_FAR">      0.00000000</i>
   <i name="OFIELD_A">      0.00000000</i>
  </separator>
  <separator name="solvation model" >
   <i type="logical" name="LSOL"> F  </i>
  </separator>
 </parameters>
 <atominfo>
  <atoms>       2 </atoms>
  <types>       1 </types>
  <array name="atoms" >
   <dimension dim="1">ion</dimension>
   <field type="string">element</field>
   <field type="int">atomtype</field>
   <set>
    <rc><c>H </c><c>   1</c></rc>
    <rc><c>H </c><c>   1</c></rc>
   </set>
  </array>
  <array name="atomtypes" >
   <dimension dim="1">type</dimension>
   <field type="int">atomspertype</field>
   <field type="string">element</field>
   <field>mass</field>
   <field>valence</field>
   <field type="string">pseudopotential</field>
   <set>
    <rc><c>   2</c><c>H </c><c>      1.00000000</c><c>      1.00000000</c><c>  PAW_PBE H 15Jun2001                   </c></rc>
   </set>
  </array>
 </atominfo>
 <structure name="initialpos" >
  <crystal>
   <varray name="basis" >
    <v>      14.00000000       0.00000000       0.00000000 </v>
    <v>       0.00000000      14.00000000       0.00000000 </v>
    <v>       0.00000000       0.00000000      14.73716600 </v>
   </varray>
   <i name="volume">   2888.48453600 </i>
   <varray name="rec_basis" >
    <v>       0.07142857       0.00000000       0.00000000 </v>
    <v>       0.00000000       0.07142857       0.00000000 </v>
    <v>       0.00000000       0.00000000       0.06785565 </v>
   </varray>
  </crystal>
  <varray name="positions" >
   <v>       0.50000000       0.50000000       0.52501044 </v>
   <v>       0.50000000       0.50000000       0.47498956 </v>
  </varray>
 </structure>
 <calculation>
  <scstep>
   <time name="dav">    0.18    0.19</time>
   <time name="total">   22.43   22.46</time>
   <energy>
    <i name="alphaZ">      0.00337363 </i>
    <i name="ewald">     13.80628928 </i>
    <i name="hartreedc">    -23.04521564 </i>
    <i name="XCdc">      4.21453326 </i>
    <i name="pawpsdc">      3.79030621 </i>
    <i name="pawaedc">     -3.82362138 </i>
    <i name="eentropy">     -0.00000000 </i>
    <i name="bandstr">    -21.75766082 </i>
    <i name="atom">     25.79065728 </i>
    <i name="e_fr_energy">     -1.02133820 </i>
    <i name="e_wo_entrp">     -1.02133820 </i>
    <i name="e_0_energy">     -1.02133820 </i>
   </energy>
  </scstep>
  <scstep>
   <time name="dav">    0.13    0.13</time>
   <time name="total">    0.13    0.13</time>
   <energy>
    <i name="e_fr_energy">     -7.71118219 </i>
    <i name="e_wo_entrp">     -7.71118219 </i>
    <i name="e_0_energy">     -7.71118219 </i>
   </energy>
  </scstep>
  <scstep>
   <time name="dav">    0.17    0.17</time>
   <time name="total">    0.17    0.17</time>
   <energy>
    <i name="e_fr_energy">     -7.98856317 </i>
    <i name="e_wo_entrp">     -7.98856317 </i>
    <i name="e_0_energy">     -7.98856317 </i>
   </energy>
  </scstep>
  <scstep>
   <time name="dav">    0.22    0.22</time>
   <time name="total">    0.22    0.22</time>
   <energy>
    <i name="e_fr_energy">     -7.98875494 </i>
    <i name="e_wo_entrp">     -7.98875494 </i>
    <i name="e_0_energy">     -7.98875494 </i>
   </energy>
  </scstep>
  <scstep>
   <time name="dav">    0.17    0.17</time>
   <time name="total">    0.34    0.34</time>
   <energy>
    <i name="e_fr_energy">     -7.98875494 </i>
    <i name="e_wo_entrp">     -7.98875494 </i>
    <i name="e_0_energy">     -7.98875494 </i>
   </energy>
  </scstep>
  <scstep>
   <time name="dav">    0.13    0.13</time>
   <time name="total">   22.08   22.08</time>
   <energy>
    <i name="e_fr_energy">     -7.45553286 </i>
    <i name="e_wo_entrp">     -7.45553286 </i>
    <i name="e_0_energy">     -7.45553286 </i>
   </energy>
  </scstep>
  <scstep>
   <time name="dav">    0.13    0.13</time>
   <time name="total">   22.09   22.10</time>
   <energy>
    <i name="e_fr_energy">     -7.16389604 </i>
    <i name="e_wo_entrp">     -7.16389604 </i>
    <i name="e_0_energy">     -7.16389604 </i>
   </energy>
  </scstep>
  <scstep>
   <time name="dav">    0.13    0.13</time>
   <time name="total">   22.12   22.12</time>
   <energy>
    <i name="e_fr_energy">     -7.17071423 </i>
    <i name="e_wo_entrp">     -7.17071423 </i>
    <i name="e_0_energy">     -7.17071423 </i>
   </energy>
  </scstep>
  <scstep>
   <time name="dav">    0.13    0.13</time>
   <time name="total">   22.11   22.12</time>
   <energy>
    <i name="e_fr_energy">     -7.16113275 </i>
    <i name="e_wo_entrp">     -7.16113275 </i>
    <i name="e_0_energy">     -7.16113275 </i>
   </energy>
  </scstep>
  <scstep>
   <time name="dav">    0.13    0.13</time>
   <time name="total">   22.11   22.12</time>
   <energy>
    <i name="e_fr_energy">     -7.16494383 </i>
    <i name="e_wo_entrp">     -7.16494383 </i>
    <i name="e_0_energy">     -7.16494383 </i>
   </energy>
  </scstep>
  <scstep>
   <time name="dav">    0.13    0.13</time>
   <time name="total">   22.13   22.14</time>
   <energy>
    <i name="e_fr_energy">     -7.16685337 </i>
    <i name="e_wo_entrp">     -7.16685337 </i>
    <i name="e_0_energy">     -7.16685337 </i>
   </energy>
  </scstep>
  <scstep>
   <time name="dav">    0.13    0.13</time>
   <time name="total">   22.12   22.13</time>
   <energy>
    <i name="e_fr_energy">     -7.16735468 </i>
    <i name="e_wo_entrp">     -7.16735468 </i>
    <i name="e_0_energy">     -7.16735468 </i>
   </energy>
  </scstep>
  <scstep>
   <time name="dav">    0.18    0.18</time>
   <time name="total">   22.00   22.01</time>
   <energy>
    <i name="alphaZ">      0.00337363 </i>
    <i name="ewald">     13.80628928 </i>
    <i name="hartreedc">    -30.35787414 </i>
    <i name="XCdc">      5.24894305 </i>
    <i name="pawpsdc">     23.24192873 </i>
    <i name="pawaedc">    -23.30552557 </i>
    <i name="eentropy">     -0.00000000 </i>
    <i name="bandstr">    -21.59524658 </i>
    <i name="atom">     25.79065728 </i>
    <i name="e_fr_energy">     -7.16745433 </i>
    <i name="e_wo_entrp">     -7.16745433 </i>
    <i name="e_0_energy">     -7.16745433 </i>
   </energy>
  </scstep>
  <structure>
   <crystal>
    <varray name="basis" >
     <v>      14.00000000       0.00000000       0.00000000 </v>
     <v>       0.00000000      14.00000000       0.00000000 </v>
     <v>       0.00000000       0.00000000      14.73716600 </v>
    </varray>
    <i name="volume">   2888.48453600 </i>
    <varray name="rec_basis" >
     <v>       0.07142857       0.00000000       0.00000000 </v>
     <v>       0.00000000       0.07142857       0.00000000 </v>
     <v>       0.00000000       0.00000000       0.06785565 </v>
    </varray>
   </crystal>
   <varray name="positions" >
    <v>       0.50000000       0.50000000       0.52501044 </v>
    <v>       0.50000000       0.50000000       0.47498956 </v>
   </varray>
  </structure>
  <varray name="forces" >
   <v>       0.00000000      -0.00000000      -0.05982569 </v>
   <v>      -0.00000000       0.00000000       0.05982569 </v>
  </varray>
  <varray name="stress" >
   <v>      -0.02232123       0.00000000      -0.00000000 </v>
   <v>      -0.00000000      -0.02232123       0.00000000 </v>
   <v>       0.00000000       0.00000000      -0.05421758 </v>
  </varray>
  <energy>
   <i name="e_fr_energy">     -7.16745433 </i>
   <i name="e_wo_entrp">     -7.16745433 </i>
   <i name="e_0_energy">     -0.00000000 </i>
  </energy>
  <time name="totalsc">  244.72  245.90</time>
 </calculation>
 <calculation>
  <scstep>
   <time name="dav">    0.13    0.13</time>
   <time name="total">   22.08   22.09</time>
   <energy>
    <i name="alphaZ">      0.00337363 </i>
    <i name="ewald">     13.96037962 </i>
    <i name="hartreedc">    -30.41778624 </i>
    <i name="XCdc">      5.25595191 </i>
    <i name="pawpsdc">     23.24534487 </i>
    <i name="pawaedc">    -23.30894922 </i>
    <i name="eentropy">     -0.00000000 </i>
    <i name="bandstr">    -21.69631567 </i>
    <i name="atom">     25.79065728 </i>
    <i name="e_fr_energy">     -7.16734384 </i>
    <i name="e_wo_entrp">     -7.16734384 </i>
    <i name="e_0_energy">     -7.16734384 </i>
   </energy>
  </scstep>
  <scstep>
   <time name="dav">    0.18    0.18</time>
   <time name="total">   21.99   21.99</time>
   <energy>
    <i name="alphaZ">      0.00337363 </i>
    <i name="ewald">     13.96037962 </i>
    <i name="hartreedc">    -30.44498688 </i>
    <i name="XCdc">      5.25969033 </i>
    <i name="pawpsdc">     23.41614401 </i>
    <i name="pawaedc">    -23.48017665 </i>
    <i name="eentropy">     -0.00000000 </i>
    <i name="bandstr">    -21.67239774 </i>
    <i name="atom">     25.79065728 </i>
    <i name="e_fr_energy">     -7.16731639 </i>
    <i name="e_wo_entrp">     -7.16731639 </i>
    <i name="e_0_energy">     -7.16731639 </i>
   </energy>
  </scstep>
  <structure>
   <crystal>
    <varray name="basis" >
     <v>      14.00000000       0.00000000       0.00000000 </v>
     <v>       0.00000000      14.00000000       0.00000000 </v>
     <v>       0.00000000       0.00000000      14.73716600 </v>
    </varray>
    <i name="volume">   2888.48453600 </i>
    <varray name="rec_basis" >
     <v>       0.07142857       0.00000000       0.00000000 </v>
     <v>       0.00000000       0.07142857       0.00000000 </v>
     <v>       0.00000000       0.00000000       0.06785565 </v>
    </varray>
   </crystal>
   <varray name="positions" >
    <v>       0.50000000       0.50000000       0.52481460 </v>
    <v>       0.50000000       0.50000000       0.47518540 </v>
   </varray>
  </structure>
  <varray name="forces" >
   <v>       0.00000000      -0.00000000       0.14882251 </v>
   <v>       0.00000000       0.00000000      -0.14882251 </v>
  </varray>
  <varray name="stress" >
   <v>      -0.01421215       0.00000000      -0.00000000 </v>
   <v>      -0.00000000      -0.01421215       0.00000000 </v>
   <v>       0.00000000      -0.00000000       0.03639571 </v>
  </varray>
  <energy>
   <i name="e_fr_energy">     -7.16731639 </i>
   <i name="e_wo_entrp">     -7.16731639 </i>
   <i name="e_0_energy">     -0.00000000 </i>
  </energy>
  <time name="totalsc">   78.07   78.11</time>
 </calculation>
 <calculation>
  <scstep>
   <time name="dav">    0.13    0.13</time>
   <time name="total">   22.04   22.05</time>
   <energy>
    <i name="alphaZ">      0.00337363 </i>
    <i name="ewald">     13.85022408 </i>
    <i name="hartreedc">    -30.44074050 </i>
    <i name="XCdc">      5.25955132 </i>
    <i name="pawpsdc">     23.62643206 </i>
    <i name="pawaedc">    -23.69098009 </i>
    <i name="eentropy">     -0.00000000 </i>
    <i name="bandstr">    -21.56621197 </i>
    <i name="atom">     25.79065728 </i>
    <i name="e_fr_energy">     -7.16769420 </i>
    <i name="e_wo_entrp">     -7.16769420 </i>
    <i name="e_0_energy">     -7.16769420 </i>
   </energy>
  </scstep>
  <scstep>
   <time name="dav">    0.13    0.13</time>
   <time name="total">   21.89   21.90</time>
   <energy>
    <i name="alphaZ">      0.00337363 </i>
    <i name="ewald">     13.85022408 </i>
    <i name="hartreedc">    -30.42045853 </i>
    <i name="XCdc">      5.25663503 </i>
    <i name="pawpsdc">     23.50947687 </i>
    <i name="pawaedc">    -23.57372217 </i>
    <i name="eentropy">     -0.00000000 </i>
    <i name="bandstr">    -21.58386270 </i>
    <i name="atom">     25.79065728 </i>
    <i name="e_fr_energy">     -7.16767652 </i>
    <i name="e_wo_entrp">     -7.16767652 </i>
    <i name="e_0_energy">     -7.16767652 </i>
   </energy>
  </scstep>
  <structure>
   <crystal>
    <varray name="basis" >
     <v>      14.00000000       0.00000000       0.00000000 </v>
     <v>       0.00000000      14.00000000       0.00000000 </v>
     <v>       0.00000000       0.00000000      14.73716600 </v>
    </varray>
    <i name="volume">   2888.48453600 </i>
    <varray name="rec_basis" >
     <v>       0.07142857       0.00000000       0.00000000 </v>
     <v>       0.00000000       0.07142857       0.00000000 </v>
     <v>       0.00000000       0.00000000       0.06785565 </v>
    </varray>
   </crystal>
   <varray name="positions" >
    <v>       0.50000000       0.50000000       0.52495429 </v>
    <v>       0.50000000       0.50000000       0.47504571 </v>
   </varray>
  </structure>
  <varray name="forces" >
   <v>      -0.00000000      -0.00000000       0.01049282 </v>
   <v>       0.00000000       0.00000000      -0.01049282 </v>
  </varray>
  <varray name="stress" >
   <v>      -0.03203579       0.00000000      -0.00000000 </v>
   <v>       0.00000000      -0.03203579       0.00000000 </v>
   <v>      -0.00000000       0.00000000      -0.03297328 </v>
  </varray>
  <energy>
   <i name="e_fr_energy">     -7.16767652 </i>
   <i name="e_wo_entrp">     -7.16767652 </i>
   <i name="e_0_energy">     -0.00000000 </i>
  </energy>
  <time name="totalsc">   77.93   78.03</time>
  <eigenvalues>
   <array>
    <dimension dim="1">band</dimension>
    <dimension dim="2">kpoint</dimension>
    <dimension dim="3">spin</dimension>
    <field>eigene</field>
    <field>occ</field>
    <set>
     <set comment="spin 1">
      <set comment="kpoint 1">
       <r>  -10.7919    1.0000 </r>
       <r>   -0.1951    0.0000 </r>
       <r>   -0.0273    0.0000 </r>
       <r>    0.3891    0.0000 </r>
       <r>    0.4463    0.0000 </r>
       <r>    0.4463    0.0000 </r>
       <r>    0.5575    0.0000 </r>
       <r>    0.6284    0.0000 </r>
      </set>
     </set>
    </set>
   </array>
  </eigenvalues>
  <separator name="orbital magnetization" >
   <v name="MAGDIPOLOUT">      0.00000000      0.00000000      0.00000000</v>
  </separator>
  <dos>
   <i name="efermi">     -8.39211883 </i>
   <total>
    <array>
     <dimension dim="1">gridpoints</dimension>
     <dimension dim="2">spin</dimension>
     <field>energy</field>
     <field>total</field>
     <field>integrated</field>
     <set>
      <set comment="spin 1">
       <r>   -11.7919     0.0000     0.0000 </r>
       <r>   -11.7472     0.0000     0.0000 </r>
       <r>   -11.7025     0.0000     0.0000 </r>
       <r>   -11.6577     0.0000     0.0000 </r>
       <r>   -11.6130     0.0121     0.0005 </r>
       <r>   -11.5683     0.0068     0.0008 </r>
       <r>   -11.5235     0.0107     0.0013 </r>
       <r>   -11.4788     0.0167     0.0021 </r>
       <r>   -11.4341     0.0262     0.0032 </r>
       <r>   -11.3893     0.0409     0.0051 </r>
       <r>   -11.3446     0.0638     0.0079 </r>
       <r>   -11.2999     0.0994     0.0124 </r>
       <r>   -11.2551     0.1545     0.0193 </r>
       <r>   -11.2104     0.2396     0.0300 </r>
       <r>   -11.1657     0.3696     0.0465 </r>
       <r>   -11.1209     0.5658     0.0718 </r>
       <r>   -11.0762     0.8561     0.1101 </r>
       <r>   -11.0314     1.2730     0.1671 </r>
       <r>   -10.9867     1.8442     0.2496 </r>
       <r>   -10.9420     2.5736     0.3647 </r>
       <r>   -10.8972     3.4099     0.5173 </r>
       <r>   -10.8525     4.2203     0.7060 </r>
       <r>   -10.8078     4.8040     0.9209 </r>
       <r>   -10.7630     4.9740     1.1435 </r>
       <r>   -10.7183     4.6697     1.3524 </r>
       <r>   -10.6736     3.9977     1.5312 </r>
       <r>   -10.6288     3.1611     1.6726 </r>
       <r>   -10.5841     2.3461     1.7775 </r>
       <r>   -10.5394     1.6607     1.8518 </r>
       <r>   -10.4946     1.1364     1.9027 </r>
       <r>   -10.4499     0.7598     1.9367 </r>
       <r>   -10.4052     0.5002     1.9590 </r>
       <r>   -10.3604     0.3259     1.9736 </r>
       <r>   -10.3157     0.2109     1.9831 </r>
       <r>   -10.2710     0.1359     1.9891 </r>
       <r>   -10.2262     0.0873     1.9930 </r>
       <r>   -10.1815     0.0560     1.9955 </r>
       <r>   -10.1368     0.0359     1.9971 </r>
       <r>   -10.0920     0.0230     1.9982 </r>
       <r>   -10.0473     0.0147     1.9988 </r>
       <r>   -10.0026     0.0094     1.9993 </r>
       <r>    -9.9578     0.0000     2.0000 </r>
       <r>    -9.9131     0.0000     2.0000 </r>
       <r>    -9.8684     0.0000     2.0000 </r>
       <r>    -9.8236     0.0000     2.0000 </r>
       <r>    -9.7789     0.0000     2.0000 </r>
       <r>    -9.7342     0.0000     2.0000 </r>
       <r>    -9.6894     0.0000     2.0000 </r>
       <r>    -9.6447     0.0000     2.0000 </r>
       <r>    -9.5999     0.0000     2.0000 </r>
       <r>    -9.5552     0.0000     2.0000 </r>
       <r>    -9.5105     0.0000     2.0000 </r>
       <r>    -9.4657     0.0000     2.0000 </r>
       <r>    -9.4210     0.0000     2.0000 </r>
       <r>    -9.3763     0.0000     2.0000 </r>
       <r>    -9.3315     0.0000     2.0000 </r>
       <r>    -9.2868     0.0000     2.0000 </r>
       <r>    -9.2421     0.0000     2.0000 </r>
       <r>    -9.1973     0.0000     2.0000 </r>
       <r>    -9.1526     0.0000     2.0000 </r>
       <r>    -9.1079     0.0000     2.0000 </r>
       <r>    -9.0631     0.0000     2.0000 </r>
       <r>    -9.0184     0.0000     2.0000 </r>
       <r>    -8.9737     0.0000     2.0000 </r>
       <r>    -8.9289     0.0000     2.0000 </r>
       <r>    -8.8842     0.0000     2.0000 </r>
       <r>    -8.8395     0.0000     2.0000 </r>
       <r>    -8.7947     0.0000     2.0000 </r>
       <r>    -8.7500     0.0000     2.0000 </r>
       <r>    -8.7053     0.0000     2.0000 </r>
       <r>    -8.6605     0.0000     2.0000 </r>
       <r>    -8.6158     0.0000     2.0000 </r>
       <r>    -8.5711     0.0000     2.0000 </r>
       <r>    -8.5263     0.0000     2.0000 </r>
       <r>    -8.4816     0.0000     2.0000 </r>
       <r>    -8.4369     0.0000     2.0000 </r>
       <r>    -8.3921     0.0000     2.0000 </r>
       <r>    -8.3474     0.0000     2.0000 </r>
       <r>    -8.3027     0.0000     2.0000 </r>
       <r>    -8.2579     0.0000     2.0000 </r>
       <r>    -8.2132     0.0000     2.0000 </r>
       <r>    -8.1684     0.0000     2.0000 </r>
       <r>    -8.1237     0.0000     2.0000 </r>
       <r>    -8.0790     0.0000     2.0000 </r>
       <r>    -8.0342     0.0000     2.0000 </r>
       <r>    -7.9895     0.0000     2.0000 </r>
       <r>    -7.9448     0.0000     2.0000 </r>
       <r>    -7.9000     0.0000     2.0000 </r>
       <r>    -7.8553     0.0000     2.0000 </r>
       <r>    -7.8106     0.0000     2.0000 </r>
       <r>    -7.7658     0.0000     2.0000 </r>
       <r>    -7.7211     0.0000     2.0000 </r>
       <r>    -7.6764     0.0000     2.0000 </r>
       <r>    -7.6316     0.0000     2.0000 </r>
       <r>    -7.5869     0.0000     2.0000 </r>
       <r>    -7.5422     0.0000     2.0000 </r>
       <r>    -7.4974     0.0000     2.0000 </r>
       <r>    -7.4527     0.0000     2.0000 </r>
       <r>    -7.4080     0.0000     2.0000 </r>
       <r>    -7.3632     0.0000     2.0000 </r>
       <r>    -7.3185     0.0000     2.0000 </r>
       <r>    -7.2738     0.0000     2.0000 </r>
       <r>    -7.2290     0.0000     2.0000 </r>
       <r>    -7.1843     0.0000     2.0000 </r>
       <r>    -7.1396     0.0000     2.0000 </r>
       <r>    -7.0948     0.0000     2.0000 </r>
       <r>    -7.0501     0.0000     2.0000 </r>
       <r>    -7.0054     0.0000     2.0000 </r>
       <r>    -6.9606     0.0000     2.0000 </r>
       <r>    -6.9159     0.0000     2.0000 </r>
       <r>    -6.8712     0.0000     2.0000 </r>
       <r>    -6.8264     0.0000     2.0000 </r>
       <r>    -6.7817     0.0000     2.0000 </r>
       <r>    -6.7369     0.0000     2.0000 </r>
       <r>    -6.6922     0.0000     2.0000 </r>
       <r>    -6.6475     0.0000     2.0000 </r>
       <r>    -6.6027     0.0000     2.0000 </r>
       <r>    -6.5580     0.0000     2.0000 </r>
       <r>    -6.5133     0.0000     2.0000 </r>
       <r>    -6.4685     0.0000     2.0000 </r>
       <r>    -6.4238     0.0000     2.0000 </r>
       <r>    -6.3791     0.0000     2.0000 </r>
       <r>    -6.3343     0.0000     2.0000 </r>
       <r>    -6.2896     0.0000     2.0000 </r>
       <r>    -6.2449     0.0000     2.0000 </r>
       <r>    -6.2001     0.0000     2.0000 </r>
       <r>    -6.1554     0.0000     2.0000 </r>
       <r>    -6.1107     0.0000     2.0000 </r>
       <r>    -6.0659     0.0000     2.0000 </r>
       <r>    -6.0212     0.0000     2.0000 </r>
       <r>    -5.9765     0.0000     2.0000 </r>
       <r>    -5.9317     0.0000     2.0000 </r>
       <r>    -5.8870     0.0000     2.0000 </r>
       <r>    -5.8423     0.0000     2.0000 </r>
       <r>    -5.7975     0.0000     2.0000 </r>
       <r>    -5.7528     0.0000     2.0000 </r>
       <r>    -5.7081     0.0000     2.0000 </r>
       <r>    -5.6633     0.0000     2.0000 </r>
       <r>    -5.6186     0.0000     2.0000 </r>
       <r>    -5.5739     0.0000     2.0000 </r>
       <r>    -5.5291     0.0000     2.0000 </r>
       <r>    -5.4844     0.0000     2.0000 </r>
       <r>    -5.4397     0.0000     2.0000 </r>
       <r>    -5.3949     0.0000     2.0000 </r>
       <r>    -5.3502     0.0000     2.0000 </r>
       <r>    -5.3054     0.0000     2.0000 </r>
       <r>    -5.2607     0.0000     2.0000 </r>
       <r>    -5.2160     0.0000     2.0000 </r>
       <r>    -5.1712     0.0000     2.0000 </r>
       <r>    -5.1265     0.0000     2.0000 </r>
       <r>    -5.0818     0.0000     2.0000 </r>
       <r>    -5.0370     0.0000     2.0000 </r>
       <r>    -4.9923     0.0000     2.0000 </r>
       <r>    -4.9476     0.0000     2.0000 </r>
       <r>    -4.9028     0.0000     2.0000 </r>
       <r>    -4.8581     0.0000     2.0000 </r>
       <r>    -4.8134     0.0000     2.0000 </r>
       <r>    -4.7686     0.0000     2.0000 </r>
       <r>    -4.7239     0.0000     2.0000 </r>
       <r>    -4.6792     0.0000     2.0000 </r>
       <r>    -4.6344     0.0000     2.0000 </r>
       <r>    -4.5897     0.0000     2.0000 </r>
       <r>    -4.5450     0.0000     2.0000 </r>
       <r>    -4.5002     0.0000     2.0000 </r>
       <r>    -4.4555     0.0000     2.0000 </r>
       <r>    -4.4108     0.0000     2.0000 </r>
       <r>    -4.3660     0.0000     2.0000 </r>
       <r>    -4.3213     0.0000     2.0000 </r>
       <r>    -4.2766     0.0000     2.0000 </r>
       <r>    -4.2318     0.0000     2.0000 </r>
       <r>    -4.1871     0.0000     2.0000 </r>
       <r>    -4.1424     0.0000     2.0000 </r>
       <r>    -4.0976     0.0000     2.0000 </r>
       <r>    -4.0529     0.0000     2.0000 </r>
       <r>    -4.0082     0.0000     2.0000 </r>
       <r>    -3.9634     0.0000     2.0000 </r>
       <r>    -3.9187     0.0000     2.0000 </r>
       <r>    -3.8739     0.0000     2.0000 </r>
       <r>    -3.8292     0.0000     2.0000 </r>
       <r>    -3.7845     0.0000     2.0000 </r>
       <r>    -3.7397     0.0000     2.0000 </r>
       <r>    -3.6950     0.0000     2.0000 </r>
       <r>    -3.6503     0.0000     2.0000 </r>
       <r>    -3.6055     0.0000     2.0000 </r>
       <r>    -3.5608     0.0000     2.0000 </r>
       <r>    -3.5161     0.0000     2.0000 </r>
       <r>    -3.4713     0.0000     2.0000 </r>
       <r>    -3.4266     0.0000     2.0000 </r>
       <r>    -3.3819     0.0000     2.0000 </r>
       <r>    -3.3371     0.0000     2.0000 </r>
       <r>    -3.2924     0.0000     2.0000 </r>
       <r>    -3.2477     0.0000     2.0000 </r>
       <r>    -3.2029     0.0000     2.0000 </r>
       <r>    -3.1582     0.0000     2.0000 </r>
       <r>    -3.1135     0.0000     2.0000 </r>
       <r>    -3.0687     0.0000     2.0000 </r>
       <r>    -3.0240     0.0000     2.0000 </r>
       <r>    -2.9793     0.0000     2.0000 </r>
       <r>    -2.9345     0.0000     2.0000 </r>
       <r>    -2.8898     0.0000     2.0000 </r>
       <r>    -2.8451     0.0000     2.0000 </r>
       <r>    -2.8003     0.0000     2.0000 </r>
       <r>    -2.7556     0.0000     2.0000 </r>
       <r>    -2.7109     0.0000     2.0000 </r>
       <r>    -2.6661     0.0000     2.0000 </r>
       <r>    -2.6214     0.0000     2.0000 </r>
       <r>    -2.5767     0.0000     2.0000 </r>
       <r>    -2.5319     0.0000     2.0000 </r>
       <r>    -2.4872     0.0000     2.0000 </r>
       <r>    -2.4424     0.0000     2.0000 </r>
       <r>    -2.3977     0.0000     2.0000 </r>
       <r>    -2.3530     0.0000     2.0000 </r>
       <r>    -2.3082     0.0000     2.0000 </r>
       <r>    -2.2635     0.0000     2.0000 </r>
       <r>    -2.2188     0.0000     2.0000 </r>
       <r>    -2.1740     0.0000     2.0000 </r>
       <r>    -2.1293     0.0000     2.0000 </r>
       <r>    -2.0846     0.0000     2.0000 </r>
       <r>    -2.0398     0.0000     2.0000 </r>
       <r>    -1.9951     0.0000     2.0000 </r>
       <r>    -1.9504     0.0000     2.0000 </r>
       <r>    -1.9056     0.0000     2.0000 </r>
       <r>    -1.8609     0.0000     2.0000 </r>
       <r>    -1.8162     0.0000     2.0000 </r>
       <r>    -1.7714     0.0000     2.0000 </r>
       <r>    -1.7267     0.0000     2.0000 </r>
       <r>    -1.6820     0.0000     2.0000 </r>
       <r>    -1.6372     0.0000     2.0000 </r>
       <r>    -1.5925     0.0000     2.0000 </r>
       <r>    -1.5478     0.0000     2.0000 </r>
       <r>    -1.5030     0.0000     2.0000 </r>
       <r>    -1.4583     0.0000     2.0000 </r>
       <r>    -1.4136     0.0000     2.0000 </r>
       <r>    -1.3688     0.0000     2.0000 </r>
       <r>    -1.3241     0.0000     2.0000 </r>
       <r>    -1.2794     0.0000     2.0000 </r>
       <r>    -1.2346     0.0000     2.0000 </r>
       <r>    -1.1899     0.0000     2.0000 </r>
       <r>    -1.1452     0.0000     2.0000 </r>
       <r>    -1.1004     0.0000     2.0000 </r>
       <r>    -1.0557     0.0000     2.0000 </r>
       <r>    -1.0109     0.0128     2.0006 </r>
       <r>    -0.9662     0.0072     2.0009 </r>
       <r>    -0.9215     0.0113     2.0014 </r>
       <r>    -0.8767     0.0176     2.0022 </r>
       <r>    -0.8320     0.0419     2.0041 </r>
       <r>    -0.7873     0.0511     2.0063 </r>
       <r>    -0.7425     0.0797     2.0099 </r>
       <r>    -0.6978     0.1243     2.0155 </r>
       <r>    -0.6531     0.1934     2.0241 </r>
       <r>    -0.6083     0.3001     2.0375 </r>
       <r>    -0.5636     0.4634     2.0583 </r>
       <r>    -0.5189     0.7108     2.0901 </r>
       <r>    -0.4741     1.0788     2.1383 </r>
       <r>    -0.4294     1.6242     2.2110 </r>
       <r>    -0.3847     2.3823     2.3176 </r>
       <r>    -0.3399     3.3495     2.4674 </r>
       <r>    -0.2952     4.5372     2.6704 </r>
       <r>    -0.2505     5.8374     2.9315 </r>
       <r>    -0.2057     7.0486     3.2468 </r>
       <r>    -0.1610     7.9916     3.6043 </r>
       <r>    -0.1163     8.5713     3.9877 </r>
       <r>    -0.0715     8.7591     4.3796 </r>
       <r>    -0.0268     8.5788     4.7633 </r>
       <r>     0.0179     8.0965     5.1255 </r>
       <r>     0.0627     7.4692     5.4597 </r>
       <r>     0.1074     6.9559     5.7708 </r>
       <r>     0.1521     6.8514     6.0773 </r>
       <r>     0.1969     7.4021     6.4085 </r>
       <r>     0.2416     8.7527     6.8000 </r>
       <r>     0.2863    10.9059     7.2879 </r>
       <r>     0.3311    13.6690     7.8994 </r>
       <r>     0.3758    16.6211     8.6429 </r>
       <r>     0.4206    19.1823     9.5010 </r>
       <r>     0.4653    20.8123    10.4320 </r>
       <r>     0.5100    21.2243    11.3815 </r>
       <r>     0.5548    20.4374    12.2957 </r>
       <r>     0.5995    18.6614    13.1305 </r>
       <r>     0.6442    16.1696    13.8546 </r>
       <r>     0.6890    13.2929    14.4492 </r>
       <r>     0.7337    10.3669    14.9130 </r>
       <r>     0.7784     7.6918    15.2581 </r>
       <r>     0.8232     5.4808    15.5032 </r>
       <r>     0.8679     3.7793    15.6723 </r>
       <r>     0.9126     2.5434    15.7861 </r>
       <r>     0.9574     1.6826    15.8614 </r>
       <r>     1.0021     1.1001    15.9106 </r>
       <r>     1.0468     0.7137    15.9425 </r>
       <r>     1.0916     0.4606    15.9631 </r>
       <r>     1.1363     0.2963    15.9764 </r>
       <r>     1.1810     0.1901    15.9849 </r>
       <r>     1.2258     0.1160    15.9908 </r>
       <r>     1.2705     0.0610    15.9952 </r>
       <r>     1.3152     0.0391    15.9969 </r>
       <r>     1.3600     0.0167    15.9987 </r>
       <r>     1.4047     0.0107    15.9992 </r>
       <r>     1.4494     0.0000    16.0000 </r>
       <r>     1.4942     0.0000    16.0000 </r>
       <r>     1.5389     0.0000    16.0000 </r>
       <r>     1.5836     0.0000    16.0000 </r>
       <r>     1.6284     0.0000    16.0000 </r>
      </set>
     </set>
    </array>
   </total>
  </dos>
 </calculation>
 <structure name="finalpos" >
  <crystal>
   <varray name="basis" >
    <v>      14.00000000       0.00000000       0.00000000 </v>
    <v>       0.00000000      14.00000000       0.00000000 </v>
    <v>       0.00000000       0.00000000      14.73716600 </v>
   </varray>
   <i name="volume">   2888.48453600 </i>
   <varray name="rec_basis" >
    <v>       0.07142857       0.00000000       0.00000000 </v>
    <v>       0.00000000       0.07142857       0.00000000 </v>
    <v>       0.00000000       0.00000000       0.06785565 </v>
   </varray>
  </crystal>
  <varray name="positions" >
   <v>       0.50000000       0.50000000       0.52495429 </v>
   <v>       0.50000000       0.50000000       0.47504571 </v>
  </varray>
 </structure>
</modeling>
