 vasp.5.4.4.18Apr17-6-g9f103f2a35 (build Oct 12 2018 15:21:48) complex          
  
 executed on             LinuxIFC date 2019.08.02  09:57:46
 running on   16 total cores
 distrk:  each k-point on   16 cores,    1 groups
 distr:  one band on NCORES_PER_BAND=   4 cores,    4 groups


--------------------------------------------------------------------------------------------------------


 INCAR:
 POTCAR:    PAW_PBE O 08Apr2002                   
 POTCAR:    PAW_PBE C 08Apr2002                   

 ----------------------------------------------------------------------------- 
|                                                                             |
|  ADVICE TO THIS USER RUNNING 'VASP/VAMP'   (HEAR YOUR MASTER'S VOICE ...):  |
|                                                                             |
|      You have switched on vdW-DFT.                                          |
|      This routine was written and supplied by Jiri Klimes.                  |
|      We recommed that you carefully read and cite the following             |
|      publication                                                            |
|      J. Klimes, D.R. Bowler, A. Michelides                                  |
|        J. Phys.: Cond Matt. 22 022201 (2010)                                |
|      J. Klimes, D.R. Bowler, A. Michelides                                  |
|        Phys. Rev. B. 83, 195131 (2011)                                      |
|      and references therein.                                                |
|                                                                             |
 ----------------------------------------------------------------------------- 

 POTCAR:    PAW_PBE O 08Apr2002                   
   VRHFIN =O: s2p4                                                              
   LEXCH  = PE                                                                  
   EATOM  =   432.3788 eV,   31.7789 Ry                                         
                                                                                
   TITEL  = PAW_PBE O 08Apr2002                                                 
   LULTRA =        F    use ultrasoft PP ?                                      
   IUNSCR =        1    unscreen: 0-lin 1-nonlin 2-no                           
   RPACOR =    1.200    partial core radius                                     
   POMASS =   16.000; ZVAL   =    6.000    mass and valenz                      
   RCORE  =    1.520    outmost cutoff radius                                   
   RWIGS  =    1.550; RWIGS  =    0.820    wigner-seitz radius (au A)           
   ENMAX  =  400.000; ENMIN  =  300.000 eV                                      
   ICORE  =        2    local potential                                         
   LCOR   =        T    correct aug charges                                     
   LPAW   =        T    paw PP                                                  
   EAUG   =  605.392                                                            
   DEXC   =    0.000                                                            
   RMAX   =    1.553    core radius for proj-oper                               
   RAUG   =    1.300    factor for augmentation sphere                          
   RDEP   =    1.550    radius for radial grids                                 
   RDEPT  =    1.329    core radius for aug-charge                              
                                                                                
   Atomic configuration                                                         
    4 entries                                                                   
     n  l   j            E        occ.                                          
     1  0  0.50      -514.6923   2.0000                                         
     2  0  0.50       -23.9615   2.0000                                         
     2  1  0.50        -9.0305   4.0000                                         
     3  2  1.50        -9.5241   0.0000                                         
   Description                                                                  
     l       E           TYP  RCUT    TYP  RCUT                                 
     0    -23.9615318     23  1.200                                             
     0     -9.5240782     23  1.200                                             
     1     -9.0304911     23  1.520                                             
     1      8.1634956     23  1.520                                             
     2     -9.5240782      7  1.500                                             
  local pseudopotential read in
  partial core-charges read in
  partial kinetic energy density read in
  kinetic energy density of atom read in
  atomic valenz-charges read in
  non local Contribution for L=           0  read in
    real space projection operators read in
  non local Contribution for L=           0  read in
    real space projection operators read in
  non local Contribution for L=           1  read in
    real space projection operators read in
  non local Contribution for L=           1  read in
    real space projection operators read in
    PAW grid and wavefunctions read in
 
   number of l-projection  operators is LMAX  =           4
   number of lm-projection operators is LMMAX =           8
 
 POTCAR:    PAW_PBE C 08Apr2002                   
   VRHFIN =C: s2p2                                                              
   LEXCH  = PE                                                                  
   EATOM  =   147.1560 eV,   10.8157 Ry                                         
                                                                                
   TITEL  = PAW_PBE C 08Apr2002                                                 
   LULTRA =        F    use ultrasoft PP ?                                      
   IUNSCR =        1    unscreen: 0-lin 1-nonlin 2-no                           
   RPACOR =    1.200    partial core radius                                     
   POMASS =   12.011; ZVAL   =    4.000    mass and valenz                      
   RCORE  =    1.500    outmost cutoff radius                                   
   RWIGS  =    1.630; RWIGS  =    0.863    wigner-seitz radius (au A)           
   ENMAX  =  400.000; ENMIN  =  300.000 eV                                      
   ICORE  =        2    local potential                                         
   LCOR   =        T    correct aug charges                                     
   LPAW   =        T    paw PP                                                  
   EAUG   =  644.873                                                            
   DEXC   =    0.000                                                            
   RMAX   =    1.529    core radius for proj-oper                               
   RAUG   =    1.300    factor for augmentation sphere                          
   RDEP   =    1.501    radius for radial grids                                 
   RDEPT  =    1.300    core radius for aug-charge                              
                                                                                
   Atomic configuration                                                         
    4 entries                                                                   
     n  l   j            E        occ.                                          
     1  0  0.50      -273.3789   2.0000                                         
     2  0  0.50       -13.7508   2.0000                                         
     2  1  0.50        -5.2854   2.0000                                         
     3  2  1.50        -5.4423   0.0000                                         
   Description                                                                  
     l       E           TYP  RCUT    TYP  RCUT                                 
     0    -13.7508458     23  1.200                                             
     0     -8.2022199     23  1.200                                             
     1     -5.2854383     23  1.500                                             
     1     34.0145650     23  1.500                                             
     2     -5.4423304      7  1.500                                             
  local pseudopotential read in
  partial core-charges read in
  partial kinetic energy density read in
  atomic valenz-charges read in
  non local Contribution for L=           0  read in
    real space projection operators read in
  non local Contribution for L=           0  read in
    real space projection operators read in
  non local Contribution for L=           1  read in
    real space projection operators read in
  non local Contribution for L=           1  read in
    real space projection operators read in
    PAW grid and wavefunctions read in
 
   number of l-projection  operators is LMAX  =           4
   number of lm-projection operators is LMMAX =           8
 

 ----------------------------------------------------------------------------- 
|                                                                             |
|  ADVICE TO THIS USER RUNNING 'VASP/VAMP'   (HEAR YOUR MASTER'S VOICE ...):  |
|                                                                             |
|      You enforced a specific xc-type in the INCAR file,                     |
|      a different type was found on the POTCAR file                          |
|          I HOPE YOU KNOW, WHAT YOU ARE  DOING                               |
|                                                                             |
 ----------------------------------------------------------------------------- 

  PAW_PBE O 08Apr2002                   :
 energy of atom  1       EATOM= -432.3788
 kinetic energy error for atom=    0.0224 (will be added to EATOM!!)
  PAW_PBE C 08Apr2002                   :
 energy of atom  2       EATOM= -147.1560
 kinetic energy error for atom=    0.0076 (will be added to EATOM!!)
 
 
 POSCAR:  O  C                                   
  positions in cartesian coordinates
  No initial velocities read in
 exchange correlation table for  LEXCH =       17
   RHO(1)=    0.500       N(1)  =     2000
   RHO(2)=  100.500       N(2)  =     4000

 VTST: version 3.2, (02/03/18)

 CHAIN: initializing optimizer
 
 OPT: Using VASP Conjugate-Gradient optimizer
 CHAIN: Read ICHAIN            0
 
 POSCAR:  O  C                                   
  positions in cartesian coordinates
  No initial velocities read in
 


--------------------------------------------------------------------------------------------------------


 ion  position               nearest neighbor table
   1  0.500  0.500  0.538-   2 1.15
   2  0.500  0.500  0.462-   1 1.15
 
  LATTYP: Found a simple tetragonal cell.
 ALAT       =    14.0000000000
 C/A-ratio  =     1.0821671429
  
  Lattice vectors:
  
 A1 = (  14.0000000000,   0.0000000000,   0.0000000000)
 A2 = (   0.0000000000,  14.0000000000,   0.0000000000)
 A3 = (   0.0000000000,   0.0000000000,  15.1503400000)


Analysis of symmetry for initial positions (statically):
=====================================================================
 Subroutine PRICEL returns:
 Original cell was already a primitive cell.
 

 Routine SETGRP: Setting up the symmetry group for a 
 simple tetragonal supercell.


 Subroutine GETGRP returns: Found  8 space group operations
 (whereof  8 operations were pure point group operations)
 out of a pool of 16 trial point group operations.


The static configuration has the point symmetry C_4v.


Analysis of symmetry for dynamics (positions and initial velocities):
=====================================================================
 Subroutine PRICEL returns:
 Original cell was already a primitive cell.
 

 Routine SETGRP: Setting up the symmetry group for a 
 simple tetragonal supercell.


 Subroutine GETGRP returns: Found  8 space group operations
 (whereof  8 operations were pure point group operations)
 out of a pool of 16 trial point group operations.


The dynamic configuration has the point symmetry C_4v.


 Subroutine INISYM returns: Found  8 space group operations
 (whereof  8 operations are pure point group operations),
 and found     1 'primitive' translations

 
 
 KPOINTS: KPOINTS created by Atomic Simulation Env

Automatic generation of k-mesh.
Space group operators:
 irot       det(A)        alpha          n_x          n_y          n_z        tau_x        tau_y        tau_z
    1     1.000000     0.000000     1.000000     0.000000     0.000000     0.000000     0.000000     0.000000
    2     1.000000    90.000000     0.000000     0.000000    -1.000000     0.000000     0.000000     0.000000
    3     1.000000   180.000000     0.000000     0.000000     1.000000     0.000000     0.000000     0.000000
    4     1.000000    90.000000     0.000000     0.000000     1.000000     0.000000     0.000000     0.000000
    5    -1.000000   180.000000     0.000000     1.000000     0.000000     0.000000     0.000000     0.000000
    6    -1.000000   180.000000     0.707107     0.707107     0.000000     0.000000     0.000000     0.000000
    7    -1.000000   180.000000     1.000000     0.000000     0.000000     0.000000     0.000000     0.000000
    8    -1.000000   180.000000     0.707107    -0.707107     0.000000     0.000000     0.000000     0.000000
 
 Subroutine IBZKPT returns following result:
 ===========================================
 
 Found      1 irreducible k-points:
 
 Following reciprocal coordinates:
            Coordinates               Weight
  0.000000  0.000000  0.000000      1.000000
 
 Following cartesian coordinates:
            Coordinates               Weight
  0.000000  0.000000  0.000000      1.000000
 


--------------------------------------------------------------------------------------------------------




 Dimension of arrays:
   k-points           NKPTS =      1   k-points in BZ     NKDIM =      1   number of bands    NBANDS=     12
   number of dos      NEDOS =    301   number of ions     NIONS =      2
   non local maximal  LDIM  =      4   non local SUM 2l+1 LMDIM =      8
   total plane-waves  NPLWV = ******
   max r-space proj   IRMAX =      1   max aug-charges    IRDMAX=   5906
   dimension x,y,z NGX =   108 NGY =  108 NGZ =  112
   dimension x,y,z NGXF=   216 NGYF=  216 NGZF=  224
   support grid    NGXF=   216 NGYF=  216 NGZF=  224
   ions per type =               1   1
   NGX,Y,Z   is equivalent  to a cutoff of  12.82, 12.82, 12.29 a.u.
   NGXF,Y,Z  is equivalent  to a cutoff of  25.65, 25.65, 24.58 a.u.

 SYSTEM =  unknown system                          
 POSCAR =   O  C                                   

 Startparameter for this run:
   NWRITE =      2    write-flag & timer
   PREC   = accura    normal or accurate (medium, high low for compatibility)
   ISTART =      0    job   : 0-new  1-cont  2-samecut
   ICHARG =      2    charge: 1-file 2-atom 10-const
   ISPIN  =      1    spin polarized calculation?
   LNONCOLLINEAR =      F non collinear calculations
   LSORBIT =      F    spin-orbit coupling
   INIWAV =      1    electr: 0-lowe 1-rand  2-diag
   LASPH  =      F    aspherical Exc in radial PAW
   METAGGA=      F    non-selfconsistent MetaGGA calc.

 Electronic Relaxation 1
   ENCUT  =  500.0 eV  36.75 Ry    6.06 a.u.  25.53 25.53 27.62*2*pi/ulx,y,z
   ENINI  =  500.0     initial cutoff
   ENAUG  =  644.9 eV  augmentation charge cutoff
   NELM   =    350;   NELMIN=  2; NELMDL=  0     # of ELM steps 
   EDIFF  = 0.1E-03   stopping-criterion for ELM
   LREAL  =      F    real-space projection
   NLSPLINE    = F    spline interpolate recip. space projectors
   LCOMPAT=      F    compatible to vasp.4.4
   GGA_COMPAT  = T    GGA compatible to vasp.4.4-vasp.4.6
   LMAXPAW     = -100 max onsite density
   LMAXMIX     =    2 max onsite mixed and CHGCAR
   VOSKOWN=      0    Vosko Wilk Nusair interpolation
   ROPT   =    0.00000   0.00000
 Ionic relaxation
   EDIFFG = -.3E-01   stopping-criterion for IOM
   NSW    =    200    number of steps for IOM
   NBLOCK =      1;   KBLOCK =    200    inner block; outer block 
   IBRION =      2    ionic relax: 0-MD 1-quasi-New 2-CG
   NFREE  =      1    steps in history (QN), initial steepest desc. (CG)
   ISIF   =      2    stress and relaxation
   IWAVPR =     11    prediction:  0-non 1-charg 2-wave 3-comb
   ISYM   =      2    0-nonsym 1-usesym 2-fastsym
   LCORR  =      T    Harris-Foulkes like correction to forces

   POTIM  = 0.5000    time-step for ionic-motion
   TEIN   =    0.0    initial temperature
   TEBEG  =    0.0;   TEEND  =   0.0 temperature during run
   SMASS  =  -3.00    Nose mass-parameter (am)
   estimated Nose-frequenzy (Omega)   =  0.10E-29 period in steps =****** mass=  -0.448E-26a.u.
   SCALEE = 1.0000    scale energy and forces
   NPACO  =    256;   APACO  = 16.0  distance and # of slots for P.C.
   PSTRESS=    0.0 pullay stress

  Mass of Ions in am
   POMASS =  16.00 12.01
  Ionic Valenz
   ZVAL   =   6.00  4.00
  Atomic Wigner-Seitz radii
   RWIGS  =  -1.00 -1.00
  virtual crystal weights 
   VCA    =   1.00  1.00
   NELECT =      10.0000    total number of electrons
   NUPDOWN=      -1.0000    fix difference up-down

 DOS related values:
   EMIN   =  10.00;   EMAX   =-10.00  energy-range for DOS
   EFERMI =   0.00
   ISMEAR =    -1;   SIGMA  =   0.10  broadening in eV -4-tet -1-fermi 0-gaus

 Electronic relaxation 2 (details)
   IALGO  =     38    algorithm
   LDIAG  =      T    sub-space diagonalisation (order eigenvalues)
   LSUBROT=      F    optimize rotation matrix (better conditioning)
   TURBO    =      0    0=normal 1=particle mesh
   IRESTART =      0    0=no restart 2=restart with 2 vectors
   NREBOOT  =      0    no. of reboots
   NMIN     =      0    reboot dimension
   EREF     =   0.00    reference energy to select bands
   IMIX   =      4    mixing-type and parameters
     AMIX     =   0.40;   BMIX     =  1.00
     AMIX_MAG =   1.60;   BMIX_MAG =  1.00
     AMIN     =   0.10
     WC   =   100.;   INIMIX=   1;  MIXPRE=   1;  MAXMIX= -45

 Intra band minimization:
   WEIMIN = 0.0010     energy-eigenvalue tresh-hold
   EBREAK =  0.21E-05  absolut break condition
   DEPER  =   0.30     relativ break condition  

   TIME   =   0.40     timestep for ELM

  volume/ion in A,a.u.               =    1484.73     10019.47
  Fermi-wavevector in a.u.,A,eV,Ry     =   0.245385  0.463711  0.819261  0.060214
  Thomas-Fermi vector in A             =   1.056278
 
 Write flags
   LWAVE        =      T    write WAVECAR
   LDOWNSAMPLE  =      F    k-point downsampling of WAVECAR
   LCHARG       =      T    write CHGCAR
   LVTOT        =      F    write LOCPOT, total local potential
   LVHAR        =      F    write LOCPOT, Hartree potential only
   LELF         =      F    write electronic localiz. function (ELF)
   LORBIT       =      0    0 simple, 1 ext, 2 COOP (PROOUT), +10 PAW based schemes


 Dipole corrections
   LMONO  =      F    monopole corrections only (constant potential shift)
   LDIPOL =      F    correct potential (dipole corrections)
   IDIPOL =      0    1-x, 2-y, 3-z, 4-all directions 
   EPSILON=  1.0000000 bulk dielectric constant

 Exchange correlation treatment:
   GGA     =    BF    GGA type
   LEXCH   =    17    internal setting for exchange type
   VOSKOWN=      0    Vosko Wilk Nusair interpolation
   LHFCALC =     F    Hartree Fock is set to
   LHFONE  =     F    Hartree Fock one center treatment
   AEXX    =    0.0000 exact exchange contribution

 vdW DFT:
   LUSE_VDW   =     T    switch on vdW DFT
   Zab_VDW    =******    correlation parameter
   PARAM1     =0.1234
   PARAM2     =1.0000
   PARAM3     =0.0000
   -- rVV10 --
   BPARAM     = 6.3000
   CPARAM     = 0.0093

 Linear response parameters
   LEPSILON=     F    determine dielectric tensor
   LRPA    =     F    only Hartree local field effects (RPA)
   LNABLA  =     F    use nabla operator in PAW spheres
   LVEL    =     F    velocity operator in full k-point grid
   LINTERFAST=   F  fast interpolation
   KINTER  =     0    interpolate to denser k-point grid
   CSHIFT  =0.1000    complex shift for real part using Kramers Kronig
   OMEGAMAX=  -1.0    maximum frequency
   DEG_THRESHOLD= 0.2000000E-02 threshold for treating states as degnerate
   RTIME   =   -0.100 relaxation time in fs
  (WPLASMAI=    0.000 imaginary part of plasma frequency in eV, 0.658/RTIME)
   DFIELD  = 0.0000000 0.0000000 0.0000000 field for delta impulse in time
 
 Orbital magnetization related:
   ORBITALMAG=     F  switch on orbital magnetization
   LCHIMAG   =     F  perturbation theory with respect to B field
   DQ        =  0.001000  dq finite difference perturbation B field
   LLRAUG    =     F  two centre corrections for induced B field



--------------------------------------------------------------------------------------------------------


 conjugate gradient relaxation of ions
 charge density and potential will be updated during run
 non-spin polarized calculation
 Variant of blocked Davidson
 Davidson routine will perform the subspace rotation
 perform sub-space diagonalisation
    after iterative eigenvector-optimisation
 modified Broyden-mixing scheme, WC =      100.0
 initial mixing is a Kerker type mixing with AMIX =  0.4000 and BMIX =      1.0000
 Hartree-type preconditioning will be used
 using additional bands            7
 reciprocal scheme for non local part
 use partial core corrections
 calculate Harris-corrections to forces 
   (improved forces if not selfconsistent)
 use gradient corrections 
 use of overlap-Matrix (Vanderbilt PP)
 Fermi-smearing in eV        SIGMA  =   0.10


--------------------------------------------------------------------------------------------------------


  energy-cutoff  :      500.00
  volume of cell :     2969.47
      direct lattice vectors                 reciprocal lattice vectors
    14.000000000  0.000000000  0.000000000     0.071428571  0.000000000  0.000000000
     0.000000000 14.000000000  0.000000000     0.000000000  0.071428571  0.000000000
     0.000000000  0.000000000 15.150340000     0.000000000  0.000000000  0.066005119

  length of vectors
    14.000000000 14.000000000 15.150340000     0.071428571  0.071428571  0.066005119


 
 k-points in units of 2pi/SCALE and weight: KPOINTS created by Atomic Simulation Env
   0.00000000  0.00000000  0.00000000       1.000
 
 k-points in reciprocal lattice and weights: KPOINTS created by Atomic Simulation Env
   0.00000000  0.00000000  0.00000000       1.000
 
 position of ions in fractional coordinates (direct lattice) 
   0.50000000  0.50000000  0.53796416
   0.50000000  0.50000000  0.46203584
 
 position of ions in cartesian coordinates  (Angst):
   7.00000000  7.00000000  8.15034000
   7.00000000  7.00000000  7.00000000
 


--------------------------------------------------------------------------------------------------------


 k-point  1 :   0.0000 0.0000 0.0000  plane waves:   75467

 maximum and minimum number of plane-waves per node :     18874    18860

 maximum number of plane-waves:     75467
 maximum index in each direction: 
   IXMAX=   25   IYMAX=   25   IZMAX=   27
   IXMIN=  -25   IYMIN=  -25   IZMIN=  -27


 parallel 3D FFT for wavefunctions:
    minimum data exchange during FFTs selected (reduces bandwidth)
 parallel 3D FFT for charge:
    minimum data exchange during FFTs selected (reduces bandwidth)


 total amount of memory used by VASP MPI-rank0   117547. kBytes
=======================================================================

   base      :      30000. kBytes
   nonl-proj :       3020. kBytes
   fftplans  :      32333. kBytes
   grid      :      51285. kBytes
   one-center:          3. kBytes
   wavefun   :        906. kBytes
 
     INWAV:  cpu time    0.0000: real time    0.0002
 Broyden mixing: mesh for mixing (old mesh)
   NGX = 51   NGY = 51   NGZ = 55
  (NGX  =216   NGY  =216   NGZ  =224)
  gives a total of 143055 points

 initial charge density was supplied:
 charge density of overlapping atoms calculated
 number of electron      10.0000000 magnetization 
 keeping initial charge density in first step


--------------------------------------------------------------------------------------------------------


 Maximum index for augmentation-charges          328 (set IRDMAX)


--------------------------------------------------------------------------------------------------------


 First call to EWALD:  gamma=   0.123
 Maximum number of real-space cells 3x 3x 3
 Maximum number of reciprocal cells 3x 3x 3

    FEWALD:  cpu time    0.0013: real time    0.0013


--------------------------------------- Iteration      1(   1)  ---------------------------------------


vdW kernel read from vdw_kernel.bindat
  0.0000  0.2424  0.5071  0.7962  1.1119  1.4567  1.8333  2.2446  2.6937  3.1842
  3.7199  4.3049  4.9438  5.6415  6.4036  7.2358  8.1446  9.1372 10.2212 11.4050
 12.6979 14.1099 15.6519 17.3360 19.1751 21.1837 23.3773 25.7729 28.3892 31.2465
 34.3669 37.7748 41.4965 45.5611 50.0000
 
    POTLOK:  cpu time   22.9654: real time   22.9780
    SETDIJ:  cpu time    0.0038: real time    0.0044
     EDDAV:  cpu time    0.2743: real time    0.3361
       DOS:  cpu time    0.0004: real time    0.0013
    --------------------------------------------
      LOOP:  cpu time   23.2439: real time   23.3199

 eigenvalue-minimisations  :    32
 total energy-change (2. order) : 0.9422697E+02  (-0.1787091E+03)
 number of electron      10.0000000 magnetization 
 augmentation part       10.0000000 magnetization 

 Free energy of the ion-electron system (eV)
  ---------------------------------------------------
  alpha Z        PSCENC =         0.14715018
  Ewald energy   TEWEN  =       158.85504420
  -Hartree energ DENC   =      -619.72021204
  -exchange      EXHF   =         0.00000000
  -V(xc)+E(xc)   XCENC  =        39.61854878
  PAW double counting   =       455.07029581     -457.86403136
  entropy T*S    EENTRO =        -0.21293589
  eigenvalues    EBANDS =       -69.00274174
  atomic energy  EATOM  =       587.33585529
  Solvation  Ediel_sol  =         0.00000000
  ---------------------------------------------------
  free energy    TOTEN  =        94.22697324 eV

  energy without entropy =       94.43990913  energy(sigma->0) =       94.33344119


--------------------------------------------------------------------------------------------------------




--------------------------------------- Iteration      1(   2)  ---------------------------------------


     EDDAV:  cpu time    0.3419: real time    0.3459
       DOS:  cpu time    0.0001: real time    0.0001
    --------------------------------------------
      LOOP:  cpu time    0.3420: real time    0.3460

 eigenvalue-minimisations  :    44
 total energy-change (2. order) :-0.9090610E+02  (-0.8686504E+02)
 number of electron      10.0000000 magnetization 
 augmentation part       10.0000000 magnetization 

 Free energy of the ion-electron system (eV)
  ---------------------------------------------------
  alpha Z        PSCENC =         0.14715018
  Ewald energy   TEWEN  =       158.85504420
  -Hartree energ DENC   =      -619.72021204
  -exchange      EXHF   =         0.00000000
  -V(xc)+E(xc)   XCENC  =        39.61854878
  PAW double counting   =       455.07029581     -457.86403136
  entropy T*S    EENTRO =        -0.00000000
  eigenvalues    EBANDS =      -160.12178022
  atomic energy  EATOM  =       587.33585529
  Solvation  Ediel_sol  =         0.00000000
  ---------------------------------------------------
  free energy    TOTEN  =         3.32087065 eV

  energy without entropy =        3.32087065  energy(sigma->0) =        3.32087065


--------------------------------------------------------------------------------------------------------




--------------------------------------- Iteration      1(   3)  ---------------------------------------


     EDDAV:  cpu time    0.3658: real time    0.3660
       DOS:  cpu time    0.0001: real time    0.0001
    --------------------------------------------
      LOOP:  cpu time    0.3659: real time    0.3661

 eigenvalue-minimisations  :    48
 total energy-change (2. order) :-0.1614938E+02  (-0.1614720E+02)
 number of electron      10.0000000 magnetization 
 augmentation part       10.0000000 magnetization 

 Free energy of the ion-electron system (eV)
  ---------------------------------------------------
  alpha Z        PSCENC =         0.14715018
  Ewald energy   TEWEN  =       158.85504420
  -Hartree energ DENC   =      -619.72021204
  -exchange      EXHF   =         0.00000000
  -V(xc)+E(xc)   XCENC  =        39.61854878
  PAW double counting   =       455.07029581     -457.86403136
  entropy T*S    EENTRO =        -0.00000000
  eigenvalues    EBANDS =      -176.27116489
  atomic energy  EATOM  =       587.33585529
  Solvation  Ediel_sol  =         0.00000000
  ---------------------------------------------------
  free energy    TOTEN  =       -12.82851402 eV

  energy without entropy =      -12.82851402  energy(sigma->0) =      -12.82851402


--------------------------------------------------------------------------------------------------------




--------------------------------------- Iteration      1(   4)  ---------------------------------------


     EDDAV:  cpu time    0.2916: real time    0.2918
       DOS:  cpu time    0.0001: real time    0.0001
    --------------------------------------------
      LOOP:  cpu time    0.2917: real time    0.2919

 eigenvalue-minimisations  :    36
 total energy-change (2. order) :-0.1853160E+00  (-0.1853046E+00)
 number of electron      10.0000000 magnetization 
 augmentation part       10.0000000 magnetization 

 Free energy of the ion-electron system (eV)
  ---------------------------------------------------
  alpha Z        PSCENC =         0.14715018
  Ewald energy   TEWEN  =       158.85504420
  -Hartree energ DENC   =      -619.72021204
  -exchange      EXHF   =         0.00000000
  -V(xc)+E(xc)   XCENC  =        39.61854878
  PAW double counting   =       455.07029581     -457.86403136
  entropy T*S    EENTRO =        -0.00000000
  eigenvalues    EBANDS =      -176.45648089
  atomic energy  EATOM  =       587.33585529
  Solvation  Ediel_sol  =         0.00000000
  ---------------------------------------------------
  free energy    TOTEN  =       -13.01383002 eV

  energy without entropy =      -13.01383002  energy(sigma->0) =      -13.01383002


--------------------------------------------------------------------------------------------------------




--------------------------------------- Iteration      1(   5)  ---------------------------------------


     EDDAV:  cpu time    0.2915: real time    0.2918
       DOS:  cpu time    0.0001: real time    0.0001
    CHARGE:  cpu time    0.1693: real time    0.1694
    MIXING:  cpu time    0.0129: real time    0.0129
    --------------------------------------------
      LOOP:  cpu time    0.4739: real time    0.4743

 eigenvalue-minimisations  :    36
 total energy-change (2. order) :-0.1236901E-03  (-0.1236897E-03)
 number of electron      10.0000006 magnetization 
 augmentation part        0.7437542 magnetization 

 Broyden mixing:
  rms(total) = 0.75741E+00    rms(broyden)= 0.75679E+00
  rms(prec ) = 0.82954E+00
  weight for this iteration     100.00

 Free energy of the ion-electron system (eV)
  ---------------------------------------------------
  alpha Z        PSCENC =         0.14715018
  Ewald energy   TEWEN  =       158.85504420
  -Hartree energ DENC   =      -619.72021204
  -exchange      EXHF   =         0.00000000
  -V(xc)+E(xc)   XCENC  =        39.61854878
  PAW double counting   =       455.07029581     -457.86403136
  entropy T*S    EENTRO =        -0.00000000
  eigenvalues    EBANDS =      -176.45660458
  atomic energy  EATOM  =       587.33585529
  Solvation  Ediel_sol  =         0.00000000
  ---------------------------------------------------
  free energy    TOTEN  =       -13.01395371 eV

  energy without entropy =      -13.01395371  energy(sigma->0) =      -13.01395371


--------------------------------------------------------------------------------------------------------




--------------------------------------- Iteration      1(   6)  ---------------------------------------


    POTLOK:  cpu time   22.5134: real time   22.5202
    SETDIJ:  cpu time    0.0024: real time    0.0024
     EDDAV:  cpu time    0.2188: real time    0.2188
       DOS:  cpu time    0.0001: real time    0.0001
    CHARGE:  cpu time    0.1706: real time    0.1706
    MIXING:  cpu time    0.0138: real time    0.0138
    --------------------------------------------
      LOOP:  cpu time   22.9191: real time   22.9260

 eigenvalue-minimisations  :    24
 total energy-change (2. order) : 0.7743336E+00  (-0.5765344E+00)
 number of electron      10.0000005 magnetization 
 augmentation part        0.6390762 magnetization 

 Broyden mixing:
  rms(total) = 0.39765E+00    rms(broyden)= 0.39739E+00
  rms(prec ) = 0.42782E+00
  weight for this iteration     100.00

 eigenvalues of (default mixing * dielectric matrix)
  average eigenvalue GAMMA=   0.9495
  0.9495

 Free energy of the ion-electron system (eV)
  ---------------------------------------------------
  alpha Z        PSCENC =         0.14715018
  Ewald energy   TEWEN  =       158.85504420
  -Hartree energ DENC   =      -636.05473369
  -exchange      EXHF   =         0.00000000
  -V(xc)+E(xc)   XCENC  =        40.58358360
  PAW double counting   =       598.04821253     -600.97554419
  entropy T*S    EENTRO =        -0.00000000
  eigenvalues    EBANDS =      -160.17918806
  atomic energy  EATOM  =       587.33585529
  Solvation  Ediel_sol  =         0.00000000
  ---------------------------------------------------
  free energy    TOTEN  =       -12.23962015 eV

  energy without entropy =      -12.23962014  energy(sigma->0) =      -12.23962014


--------------------------------------------------------------------------------------------------------




--------------------------------------- Iteration      1(   7)  ---------------------------------------


    POTLOK:  cpu time   22.5137: real time   22.5214
    SETDIJ:  cpu time    0.0020: real time    0.0020
     EDDAV:  cpu time    0.2675: real time    0.2683
       DOS:  cpu time    0.0001: real time    0.0001
    CHARGE:  cpu time    0.1706: real time    0.1707
    MIXING:  cpu time    0.0140: real time    0.0140
    --------------------------------------------
      LOOP:  cpu time   22.9679: real time   22.9766

 eigenvalue-minimisations  :    32
 total energy-change (2. order) : 0.1443935E+00  (-0.9739303E-01)
 number of electron      10.0000005 magnetization 
 augmentation part        0.6679754 magnetization 

 Broyden mixing:
  rms(total) = 0.21072E+00    rms(broyden)= 0.21071E+00
  rms(prec ) = 0.22297E+00
  weight for this iteration     100.00

 eigenvalues of (default mixing * dielectric matrix)
  average eigenvalue GAMMA=   1.4443
  0.7441  2.1445

 Free energy of the ion-electron system (eV)
  ---------------------------------------------------
  alpha Z        PSCENC =         0.14715018
  Ewald energy   TEWEN  =       158.85504420
  -Hartree energ DENC   =      -637.24852702
  -exchange      EXHF   =         0.00000000
  -V(xc)+E(xc)   XCENC  =        40.68802548
  PAW double counting   =       683.73748248     -686.58607413
  entropy T*S    EENTRO =        -0.00000000
  eigenvalues    EBANDS =      -159.02418316
  atomic energy  EATOM  =       587.33585529
  Solvation  Ediel_sol  =         0.00000000
  ---------------------------------------------------
  free energy    TOTEN  =       -12.09522667 eV

  energy without entropy =      -12.09522667  energy(sigma->0) =      -12.09522667


--------------------------------------------------------------------------------------------------------




--------------------------------------- Iteration      1(   8)  ---------------------------------------


    POTLOK:  cpu time   22.5183: real time   22.5246
    SETDIJ:  cpu time    0.0017: real time    0.0017
     EDDAV:  cpu time    0.2430: real time    0.2430
       DOS:  cpu time    0.0001: real time    0.0001
    CHARGE:  cpu time    0.1707: real time    0.1707
    MIXING:  cpu time    0.0137: real time    0.0137
    --------------------------------------------
      LOOP:  cpu time   22.9475: real time   22.9537

 eigenvalue-minimisations  :    28
 total energy-change (2. order) : 0.3719608E-01  (-0.1776869E-01)
 number of electron      10.0000005 magnetization 
 augmentation part        0.6569523 magnetization 

 Broyden mixing:
  rms(total) = 0.57563E-01    rms(broyden)= 0.57554E-01
  rms(prec ) = 0.60354E-01
  weight for this iteration     100.00

 eigenvalues of (default mixing * dielectric matrix)
  average eigenvalue GAMMA=   1.5386
  2.5222  1.3626  0.7309

 Free energy of the ion-electron system (eV)
  ---------------------------------------------------
  alpha Z        PSCENC =         0.14715018
  Ewald energy   TEWEN  =       158.85504420
  -Hartree energ DENC   =      -642.34993174
  -exchange      EXHF   =         0.00000000
  -V(xc)+E(xc)   XCENC  =        40.99992744
  PAW double counting   =       820.81932567     -823.63726004
  entropy T*S    EENTRO =        -0.00000000
  eigenvalues    EBANDS =      -154.22814160
  atomic energy  EATOM  =       587.33585529
  Solvation  Ediel_sol  =         0.00000000
  ---------------------------------------------------
  free energy    TOTEN  =       -12.05803059 eV

  energy without entropy =      -12.05803059  energy(sigma->0) =      -12.05803059


--------------------------------------------------------------------------------------------------------




--------------------------------------- Iteration      1(   9)  ---------------------------------------


    POTLOK:  cpu time   22.5230: real time   22.5320
    SETDIJ:  cpu time    0.0019: real time    0.0019
     EDDAV:  cpu time    0.2193: real time    0.2193
       DOS:  cpu time    0.0001: real time    0.0001
    CHARGE:  cpu time    0.1717: real time    0.1717
    MIXING:  cpu time    0.0137: real time    0.0137
    --------------------------------------------
      LOOP:  cpu time   22.9297: real time   22.9388

 eigenvalue-minimisations  :    24
 total energy-change (2. order) : 0.7175544E-03  (-0.7012073E-03)
 number of electron      10.0000005 magnetization 
 augmentation part        0.6548173 magnetization 

 Broyden mixing:
  rms(total) = 0.13078E-01    rms(broyden)= 0.13074E-01
  rms(prec ) = 0.15496E-01
  weight for this iteration     100.00

 eigenvalues of (default mixing * dielectric matrix)
  average eigenvalue GAMMA=   1.4614
  2.4093  1.7269  0.7448  0.9644

 Free energy of the ion-electron system (eV)
  ---------------------------------------------------
  alpha Z        PSCENC =         0.14715018
  Ewald energy   TEWEN  =       158.85504420
  -Hartree energ DENC   =      -642.38799094
  -exchange      EXHF   =         0.00000000
  -V(xc)+E(xc)   XCENC  =        40.99509080
  PAW double counting   =       860.82822988     -863.62508760
  entropy T*S    EENTRO =        -0.00000000
  eigenvalues    EBANDS =      -154.20560486
  atomic energy  EATOM  =       587.33585529
  Solvation  Ediel_sol  =         0.00000000
  ---------------------------------------------------
  free energy    TOTEN  =       -12.05731304 eV

  energy without entropy =      -12.05731304  energy(sigma->0) =      -12.05731304


--------------------------------------------------------------------------------------------------------




--------------------------------------- Iteration      1(  10)  ---------------------------------------


    POTLOK:  cpu time   22.5307: real time   22.5402
    SETDIJ:  cpu time    0.0019: real time    0.0019
     EDDAV:  cpu time    0.2181: real time    0.2183
       DOS:  cpu time    0.0001: real time    0.0001
    CHARGE:  cpu time    0.1708: real time    0.1709
    MIXING:  cpu time    0.0144: real time    0.0155
    --------------------------------------------
      LOOP:  cpu time   22.9360: real time   22.9469

 eigenvalue-minimisations  :    24
 total energy-change (2. order) :-0.1088852E-02  (-0.1906358E-03)
 number of electron      10.0000005 magnetization 
 augmentation part        0.6562739 magnetization 

 Broyden mixing:
  rms(total) = 0.32956E-02    rms(broyden)= 0.32912E-02
  rms(prec ) = 0.58491E-02
  weight for this iteration     100.00

 eigenvalues of (default mixing * dielectric matrix)
  average eigenvalue GAMMA=   1.5758
  0.7450  0.9496  2.4916  1.8463  1.8463

 Free energy of the ion-electron system (eV)
  ---------------------------------------------------
  alpha Z        PSCENC =         0.14715018
  Ewald energy   TEWEN  =       158.85504420
  -Hartree energ DENC   =      -642.11340538
  -exchange      EXHF   =         0.00000000
  -V(xc)+E(xc)   XCENC  =        40.97297365
  PAW double counting   =       860.27332740     -863.06254605
  entropy T*S    EENTRO =        -0.00000000
  eigenvalues    EBANDS =      -154.46680118
  atomic energy  EATOM  =       587.33585529
  Solvation  Ediel_sol  =         0.00000000
  ---------------------------------------------------
  free energy    TOTEN  =       -12.05840189 eV

  energy without entropy =      -12.05840189  energy(sigma->0) =      -12.05840189


--------------------------------------------------------------------------------------------------------




--------------------------------------- Iteration      1(  11)  ---------------------------------------


    POTLOK:  cpu time   22.5241: real time   22.5325
    SETDIJ:  cpu time    0.0022: real time    0.0022
     EDDAV:  cpu time    0.2207: real time    0.2208
       DOS:  cpu time    0.0001: real time    0.0001
    CHARGE:  cpu time    0.1715: real time    0.1715
    MIXING:  cpu time    0.0145: real time    0.0145
    --------------------------------------------
      LOOP:  cpu time   22.9332: real time   22.9416

 eigenvalue-minimisations  :    24
 total energy-change (2. order) :-0.1854582E-02  (-0.4601439E-04)
 number of electron      10.0000005 magnetization 
 augmentation part        0.6563029 magnetization 

 Broyden mixing:
  rms(total) = 0.17932E-02    rms(broyden)= 0.17927E-02
  rms(prec ) = 0.33796E-02
  weight for this iteration     100.00

 eigenvalues of (default mixing * dielectric matrix)
  average eigenvalue GAMMA=   1.6310
  2.9509  2.4537  1.5851  0.7440  0.9456  1.1066

 Free energy of the ion-electron system (eV)
  ---------------------------------------------------
  alpha Z        PSCENC =         0.14715018
  Ewald energy   TEWEN  =       158.85504420
  -Hartree energ DENC   =      -642.41930315
  -exchange      EXHF   =         0.00000000
  -V(xc)+E(xc)   XCENC  =        40.98310708
  PAW double counting   =       860.51967649     -863.30489879
  entropy T*S    EENTRO =        -0.00000000
  eigenvalues    EBANDS =      -154.17688778
  atomic energy  EATOM  =       587.33585529
  Solvation  Ediel_sol  =         0.00000000
  ---------------------------------------------------
  free energy    TOTEN  =       -12.06025647 eV

  energy without entropy =      -12.06025647  energy(sigma->0) =      -12.06025647


--------------------------------------------------------------------------------------------------------




--------------------------------------- Iteration      1(  12)  ---------------------------------------


    POTLOK:  cpu time   22.5366: real time   22.5426
    SETDIJ:  cpu time    0.0021: real time    0.0021
     EDDAV:  cpu time    0.2188: real time    0.2189
       DOS:  cpu time    0.0001: real time    0.0001
    CHARGE:  cpu time    0.1715: real time    0.1716
    MIXING:  cpu time    0.0148: real time    0.0148
    --------------------------------------------
      LOOP:  cpu time   22.9439: real time   22.9500

 eigenvalue-minimisations  :    24
 total energy-change (2. order) :-0.1323790E-02  (-0.2399068E-04)
 number of electron      10.0000005 magnetization 
 augmentation part        0.6561979 magnetization 

 Broyden mixing:
  rms(total) = 0.88989E-03    rms(broyden)= 0.88986E-03
  rms(prec ) = 0.19594E-02
  weight for this iteration     100.00

 eigenvalues of (default mixing * dielectric matrix)
  average eigenvalue GAMMA=   1.8801
  4.0203  2.5293  2.2058  1.6625  0.7441  0.9467  1.0519

 Free energy of the ion-electron system (eV)
  ---------------------------------------------------
  alpha Z        PSCENC =         0.14715018
  Ewald energy   TEWEN  =       158.85504420
  -Hartree energ DENC   =      -642.52683340
  -exchange      EXHF   =         0.00000000
  -V(xc)+E(xc)   XCENC  =        40.98359356
  PAW double counting   =       860.03238427     -862.81654800
  entropy T*S    EENTRO =        -0.00000000
  eigenvalues    EBANDS =      -154.07222637
  atomic energy  EATOM  =       587.33585529
  Solvation  Ediel_sol  =         0.00000000
  ---------------------------------------------------
  free energy    TOTEN  =       -12.06158026 eV

  energy without entropy =      -12.06158026  energy(sigma->0) =      -12.06158026


--------------------------------------------------------------------------------------------------------




--------------------------------------- Iteration      1(  13)  ---------------------------------------


    POTLOK:  cpu time   22.5233: real time   22.5467
    SETDIJ:  cpu time    0.0020: real time    0.0020
     EDDAV:  cpu time    0.2192: real time    0.2195
       DOS:  cpu time    0.0001: real time    0.0001
    CHARGE:  cpu time    0.1713: real time    0.1714
    MIXING:  cpu time    0.0149: real time    0.0149
    --------------------------------------------
      LOOP:  cpu time   22.9308: real time   22.9546

 eigenvalue-minimisations  :    24
 total energy-change (2. order) :-0.9692514E-03  (-0.3142548E-04)
 number of electron      10.0000005 magnetization 
 augmentation part        0.6561353 magnetization 

 Broyden mixing:
  rms(total) = 0.53614E-03    rms(broyden)= 0.53610E-03
  rms(prec ) = 0.96942E-03
  weight for this iteration     100.00

 eigenvalues of (default mixing * dielectric matrix)
  average eigenvalue GAMMA=   1.9620
  5.0811  2.7298  2.4146  1.6121  0.7443  0.9267  1.0937  1.0937

 Free energy of the ion-electron system (eV)
  ---------------------------------------------------
  alpha Z        PSCENC =         0.14715018
  Ewald energy   TEWEN  =       158.85504420
  -Hartree energ DENC   =      -642.65717186
  -exchange      EXHF   =         0.00000000
  -V(xc)+E(xc)   XCENC  =        40.98617382
  PAW double counting   =       859.93049667     -862.71599265
  entropy T*S    EENTRO =        -0.00000000
  eigenvalues    EBANDS =      -153.94410517
  atomic energy  EATOM  =       587.33585529
  Solvation  Ediel_sol  =         0.00000000
  ---------------------------------------------------
  free energy    TOTEN  =       -12.06254951 eV

  energy without entropy =      -12.06254951  energy(sigma->0) =      -12.06254951


--------------------------------------------------------------------------------------------------------




--------------------------------------- Iteration      1(  14)  ---------------------------------------


    POTLOK:  cpu time   22.5405: real time   22.5464
    SETDIJ:  cpu time    0.0022: real time    0.0022
     EDDAV:  cpu time    0.2672: real time    0.2673
       DOS:  cpu time    0.0001: real time    0.0001
    CHARGE:  cpu time    0.1713: real time    0.1714
    MIXING:  cpu time    0.0154: real time    0.0154
    --------------------------------------------
      LOOP:  cpu time   22.9968: real time   23.0028

 eigenvalue-minimisations  :    32
 total energy-change (2. order) :-0.3333828E-03  (-0.3369326E-05)
 number of electron      10.0000005 magnetization 
 augmentation part        0.6561874 magnetization 

 Broyden mixing:
  rms(total) = 0.33900E-03    rms(broyden)= 0.33878E-03
  rms(prec ) = 0.61838E-03
  weight for this iteration     100.00

 eigenvalues of (default mixing * dielectric matrix)
  average eigenvalue GAMMA=   2.2059
  5.9201  3.4866  2.6706  2.4374  1.6121  0.7443  1.0533  0.9266  1.0021

 Free energy of the ion-electron system (eV)
  ---------------------------------------------------
  alpha Z        PSCENC =         0.14715018
  Ewald energy   TEWEN  =       158.85504420
  -Hartree energ DENC   =      -642.67314310
  -exchange      EXHF   =         0.00000000
  -V(xc)+E(xc)   XCENC  =        40.98602763
  PAW double counting   =       859.90143438     -862.68720563
  entropy T*S    EENTRO =        -0.00000000
  eigenvalues    EBANDS =      -153.92804585
  atomic energy  EATOM  =       587.33585529
  Solvation  Ediel_sol  =         0.00000000
  ---------------------------------------------------
  free energy    TOTEN  =       -12.06288289 eV

  energy without entropy =      -12.06288289  energy(sigma->0) =      -12.06288289


--------------------------------------------------------------------------------------------------------




--------------------------------------- Iteration      1(  15)  ---------------------------------------


    POTLOK:  cpu time   22.5245: real time   22.5315
    SETDIJ:  cpu time    0.0020: real time    0.0020
     EDDAV:  cpu time    0.2426: real time    0.2426
       DOS:  cpu time    0.0001: real time    0.0001
    CHARGE:  cpu time    0.1708: real time    0.1710
    MIXING:  cpu time    0.0158: real time    0.0158
    --------------------------------------------
      LOOP:  cpu time   22.9559: real time   22.9631

 eigenvalue-minimisations  :    28
 total energy-change (2. order) :-0.3609479E-03  (-0.4017482E-05)
 number of electron      10.0000005 magnetization 
 augmentation part        0.6562024 magnetization 

 Broyden mixing:
  rms(total) = 0.30085E-03    rms(broyden)= 0.30079E-03
  rms(prec ) = 0.36888E-03
  weight for this iteration     100.00

 eigenvalues of (default mixing * dielectric matrix)
  average eigenvalue GAMMA=   2.2128
  6.6390  3.9576  2.6437  2.4145  1.6365  0.7442  1.1214  1.1214  0.9247  0.9247

 Free energy of the ion-electron system (eV)
  ---------------------------------------------------
  alpha Z        PSCENC =         0.14715018
  Ewald energy   TEWEN  =       158.85504420
  -Hartree energ DENC   =      -642.66117807
  -exchange      EXHF   =         0.00000000
  -V(xc)+E(xc)   XCENC  =        40.98435896
  PAW double counting   =       859.88592910     -862.67115679
  entropy T*S    EENTRO =        -0.00000000
  eigenvalues    EBANDS =      -153.93924671
  atomic energy  EATOM  =       587.33585529
  Solvation  Ediel_sol  =         0.00000000
  ---------------------------------------------------
  free energy    TOTEN  =       -12.06324384 eV

  energy without entropy =      -12.06324384  energy(sigma->0) =      -12.06324384


--------------------------------------------------------------------------------------------------------




--------------------------------------- Iteration      1(  16)  ---------------------------------------


    POTLOK:  cpu time   22.5482: real time   22.5557
    SETDIJ:  cpu time    0.0022: real time    0.0021
     EDDAV:  cpu time    0.2444: real time    0.2444
       DOS:  cpu time    0.0001: real time    0.0001
    --------------------------------------------
      LOOP:  cpu time   22.7948: real time   22.8023

 eigenvalue-minimisations  :    28
 total energy-change (2. order) :-0.4375259E-04  (-0.2345196E-06)
 number of electron      10.0000005 magnetization 
 augmentation part        0.6562024 magnetization 

 Free energy of the ion-electron system (eV)
  ---------------------------------------------------
  alpha Z        PSCENC =         0.14715018
  Ewald energy   TEWEN  =       158.85504420
  -Hartree energ DENC   =      -642.66639010
  -exchange      EXHF   =         0.00000000
  -V(xc)+E(xc)   XCENC  =        40.98461548
  PAW double counting   =       859.88930267     -862.67462971
  entropy T*S    EENTRO =        -0.00000000
  eigenvalues    EBANDS =      -153.93423560
  atomic energy  EATOM  =       587.33585529
  Solvation  Ediel_sol  =         0.00000000
  ---------------------------------------------------
  free energy    TOTEN  =       -12.06328759 eV

  energy without entropy =      -12.06328759  energy(sigma->0) =      -12.06328759


--------------------------------------------------------------------------------------------------------




 average (electrostatic) potential at core
  the test charge radii are     0.7215  0.6991
  (the norm of the test charge is              1.0000)
       1 -83.9741       2 -62.1233
 
 
 
 E-fermi :  -7.0160     XC(G=0):  -0.3421     alpha+bet : -0.0590


 k-point     1 :       0.0000    0.0000    0.0000
  band No.  band energies     occupation 
      1     -29.4992      2.00000
      2     -14.3473      2.00000
      3     -11.8639      2.00000
      4     -11.8639      2.00000
      5      -9.3929      2.00000
      6      -2.4389      0.00000
      7      -2.4389      0.00000
      8      -0.3530      0.00000
      9       0.2095      0.00000
     10       0.3629      0.00000
     11       0.5050      0.00000
     12       0.5050      0.00000


--------------------------------------------------------------------------------------------------------


 soft charge-density along one line, spin component           1
         0         1         2         3         4         5         6         7         8         9
 total charge-density along one line
 
 pseudopotential strength for first ion, spin component:           1
 14.272 -17.527   0.000   0.139   0.000  -0.000  -0.175  -0.000
-17.527  21.558  -0.000  -0.176  -0.000   0.000   0.222   0.000
  0.000  -0.000 -11.058   0.000  -0.000  13.792  -0.000   0.000
  0.139  -0.176   0.000 -11.196  -0.000  -0.000  13.973   0.000
  0.000  -0.000  -0.000  -0.000 -11.058   0.000   0.000  13.792
 -0.000   0.000  13.792  -0.000   0.000 -17.148   0.000  -0.000
 -0.175   0.222  -0.000  13.973   0.000   0.000 -17.387  -0.000
 -0.000   0.000   0.000   0.000  13.792  -0.000  -0.000 -17.148
 total augmentation occupancy for first ion, spin component:           1
  2.719   0.431  -0.000  -0.736   0.000   0.000  -0.307   0.000
  0.431   0.183   0.000  -0.556   0.000  -0.000  -0.144   0.000
 -0.000   0.000   1.900   0.000   0.000   0.187   0.000   0.000
 -0.736  -0.556   0.000   2.820   0.000   0.000   0.499   0.000
  0.000   0.000   0.000   0.000   1.900   0.000   0.000   0.187
  0.000  -0.000   0.187   0.000   0.000   0.018  -0.000   0.000
 -0.307  -0.144  -0.000   0.499   0.000  -0.000   0.117   0.000
  0.000   0.000   0.000   0.000   0.187   0.000   0.000   0.018


------------------------ aborting loop because EDIFF is reached ----------------------------------------


    CHARGE:  cpu time    0.1706: real time    0.1707
    FORLOC:  cpu time    0.0251: real time    0.0251
    FORNL :  cpu time    0.0070: real time    0.0070
    STRESS:  cpu time    0.1241: real time    0.1242
    FORCOR:  cpu time   22.5997: real time   22.6068
    FORHAR:  cpu time    0.1564: real time    0.1565
    MIXING:  cpu time    0.0159: real time    0.0160
    OFIELD:  cpu time    0.0000: real time    0.0000

  FORCE on cell =-STRESS in cart. coord.  units (eV):
  Direction    XX          YY          ZZ          XY          YZ          ZX
  --------------------------------------------------------------------------------------
  Alpha Z     0.14715     0.14715     0.14715
  Ewald     -43.65101   -43.65101   246.15716    -0.00000    -0.00000    -0.00000
  Hartree   181.84222   181.84222   278.97690    -0.00000    -0.00000    -0.00000
  E(xc)     -46.43412   -46.43412   -44.50767    -0.00000    -0.00000     0.00000
  Local    -272.10117  -272.10117  -634.52232     0.00000     0.00000    -0.00000
  n-local   -17.63900   -17.63900   -28.60934    -0.00000     0.00000     0.00000
  augment     6.24743     6.24743     5.76631     0.00000     0.00000     0.00000
  Kinetic   191.54842   191.54842   175.47391    -0.00000    -0.00000     0.00000
  Fock        0.00000     0.00000     0.00000     0.00000     0.00000     0.00000
  -------------------------------------------------------------------------------------
  Total      -0.04010    -0.04010    -1.11790     0.00000     0.00000     0.00000
  in kB      -0.02163    -0.02163    -0.60316     0.00000     0.00000     0.00000
  external pressure =       -0.22 kB  Pullay stress =        0.00 kB


 VOLUME and BASIS-vectors are now :
 -----------------------------------------------------------------------------
  energy-cutoff  :      500.00
  volume of cell :     2969.47
      direct lattice vectors                 reciprocal lattice vectors
    14.000000000  0.000000000  0.000000000     0.071428571  0.000000000  0.000000000
     0.000000000 14.000000000  0.000000000     0.000000000  0.071428571  0.000000000
     0.000000000  0.000000000 15.150340000     0.000000000  0.000000000  0.066005119

  length of vectors
    14.000000000 14.000000000 15.150340000     0.071428571  0.071428571  0.066005119


 FORCES acting on ions
    electron-ion (+dipol)            ewald-force                    non-local-force                 convergence-correction
 -----------------------------------------------------------------------------------------------
   0.680E-12 0.207E-12 -.203E+03   -.164E-16 0.134E-16 0.261E+03   0.000E+00 0.000E+00 -.590E+02   -.449E-13 0.298E-13 -.153E-02
   0.171E-12 -.143E-12 0.234E+03   -.914E-17 0.175E-16 -.261E+03   -.207E-24 -.517E-25 0.281E+02   -.994E-14 0.252E-13 0.199E-02
 -----------------------------------------------------------------------------------------------
   0.851E-12 0.644E-13 0.310E+02   -.255E-16 0.309E-16 0.000E+00   -.207E-24 -.517E-25 -.310E+02   -.548E-13 0.550E-13 0.461E-03
 
 
 POSITION                                       TOTAL-FORCE (eV/Angst)
 -----------------------------------------------------------------------------------
      7.00000      7.00000      8.15034        -0.000000      0.000000     -0.926318
      7.00000      7.00000      7.00000         0.000000      0.000000      0.926318
 -----------------------------------------------------------------------------------
    total drift:                                0.000000      0.000000     -0.000260


--------------------------------------------------------------------------------------------------------



  FREE ENERGIE OF THE ION-ELECTRON SYSTEM (eV)
  ---------------------------------------------------
  free  energy   TOTEN  =       -12.06328759 eV

  energy  without entropy=      -12.06328759  energy(sigma->0) =      -12.06328759
 


--------------------------------------------------------------------------------------------------------


 BEEFens 2000 ensemble energies
             -0.103576171168890E+02
             -0.254830912378701E+00
             -0.226716455328944E+01
              0.724707926421981E+01
             -0.359650510418445E+01
             -0.283039206192949E+01
             -0.722596482131068E+01
             -0.156392455779546E+02
             -0.642627528529936E+01
             -0.696660991388036E+01
             -0.570832529312208E+01
              0.464970599842122E+00
              0.356480833402617E+00
              0.126822736246872E+00
              0.560674091279257E+00
              0.776422973148067E+01
             -0.359580867160381E+01
             -0.245424836524967E+01
              0.361070364444484E+01
             -0.183714767889471E+02
              0.904839242712440E+01
             -0.368737984135051E+01
             -0.102749529970740E+01
             -0.170404365620115E+01
             -0.167025386133702E+00
             -0.107260170632533E+01
              0.148383069459108E+02
             -0.298184395987490E+01
             -0.142111658300037E+01
             -0.887354575295087E+01
              0.123927418723210E+02
             -0.163102678288007E+01
             -0.679177153507058E+01
              0.336369451604536E+01
             -0.487614027362547E+00
              0.396396561581868E+01
             -0.217031858693730E+00
              0.552666174961267E+00
              0.546916005444350E+01
             -0.169695070504956E+02
              0.923086298307275E+01
              0.185425431165572E+01
             -0.128083067988857E+01
             -0.515761831328282E+01
              0.203127837901918E+01
             -0.250534183653534E+01
              0.790641995495578E+01
              0.596360394112747E+01
             -0.398001708843657E+01
             -0.505236937421391E+01
             -0.499370192787870E+01
             -0.602310983081723E+01
              0.312558251425806E+01
             -0.858942987690079E+01
              0.234433977468279E+01
              0.993745290609569E+01
              0.115597942592582E+02
              0.553024271273924E+01
              0.295684286389923E+01
              0.492717664562505E+01
              0.150643398898218E+02
              0.338315907525768E+01
             -0.921415313779904E+01
             -0.204353311609134E+01
             -0.468270422177638E+01
              0.103937428672366E+02
             -0.125963788590467E+02
             -0.101707480020963E+02
             -0.503069363910039E+01
             -0.213218412177521E+01
             -0.700548745107432E+01
              0.458604793119861E+01
              0.220346444352887E+01
              0.220028192122876E+01
             -0.646915497635501E+01
             -0.581034515309749E+01
             -0.926311183365640E+01
              0.589730988758392E+01
             -0.528243124288028E+01
              0.491091265795684E+01
             -0.115412465042019E+01
             -0.512352295274123E+01
             -0.898974630599666E+01
             -0.261751438958090E+01
             -0.250241368655338E+01
             -0.253869296930553E+01
              0.660810373910319E+01
              0.120679787349672E+02
             -0.700112463092249E+01
             -0.132166126927200E+02
             -0.322834793976050E+01
              0.183890264129175E+02
             -0.930400117767486E+01
              0.531989067846757E+01
             -0.154354458249458E+01
             -0.104140787181830E+02
              0.462033517954278E+01
              0.560000506750976E+01
             -0.246482199922478E+01
              0.522088636817993E+01
             -0.459879197624576E+01
             -0.914009007743874E+01
              0.158090000655735E+02
              0.740113889231516E+01
              0.429843136199904E+01
              0.192994447189241E+01
              0.315010083028463E+01
              0.136941573260771E+02
             -0.447381922694589E+01
              0.590703602680724E+00
             -0.232870087583787E+02
              0.337521167287771E+01
             -0.113056051359241E+02
              0.213513609689642E+01
              0.345605897417403E+01
             -0.569451615959707E+01
             -0.871397295356970E+01
              0.780749196139496E+00
             -0.503109679166991E+01
              0.659354948621609E+01
             -0.758641430930938E+01
             -0.881224618662543E+00
             -0.627459402219115E+01
             -0.417896160053850E+00
              0.235667126459742E+00
              0.312616869660814E+01
              0.816696446498781E-01
             -0.120772986809948E+01
              0.104761566330315E+02
              0.151247453761424E+02
              0.804997529858691E+01
              0.119191056005393E+02
             -0.231638129488607E+01
              0.154397147982979E+01
              0.866241965281029E+01
             -0.191548352855115E+00
             -0.124901896487474E+02
             -0.695287489700788E+01
             -0.819160154510841E+01
             -0.490663573723489E+01
              0.444848912157690E+01
             -0.198259292502916E+02
             -0.224596257206888E+01
              0.724516024323163E+01
             -0.680601563584199E+01
             -0.542058789098533E+01
              0.890874236860942E+01
              0.791236562478320E+01
             -0.500122210320331E+01
              0.421971752844326E+01
             -0.422884967550700E+01
              0.624853603280704E+01
              0.129008944839055E+01
              0.240577687140522E+01
             -0.139779269099686E+02
             -0.802400875303388E+01
             -0.159895381782610E+01
             -0.405899604049208E+00
             -0.665713199306447E+01
              0.180943118638695E+02
             -0.246144125351927E+01
             -0.504356364073394E+01
              0.667795632293951E+01
             -0.767610004750985E+01
             -0.598302393497057E+01
              0.512870801726649E+01
              0.178763040875318E+01
              0.172569067182891E+01
              0.214254070736807E+01
             -0.187169112219836E+01
              0.229354753998806E+01
              0.976328797008718E+01
             -0.484109111379793E+01
              0.329182612446518E+01
              0.148857928222629E+02
              0.520573709883704E+01
             -0.714097894574962E+00
             -0.306658353033800E+01
              0.252885673249992E+02
             -0.365092096958180E+01
              0.635247991591164E+01
              0.447452579865607E+01
              0.522973929430463E+01
              0.153951750545300E+02
              0.793523936037076E+01
             -0.727020134204527E+00
              0.374308476108290E+01
              0.835419038027949E+01
              0.623941982084078E+01
             -0.969308959350275E+01
              0.155944590911623E+02
             -0.143177603468507E+02
             -0.241079534467346E+01
              0.944611488045441E+01
              0.183044796484693E+01
              0.726083551747735E+00
              0.507167743533189E+01
              0.321613383145095E+01
              0.545751947417101E+01
             -0.103372596453595E+02
              0.610197069873678E+00
             -0.408721279440027E+01
             -0.105874155438106E+01
             -0.185170310728751E+00
             -0.183883356324618E+01
             -0.937562769739827E+00
              0.139627767116983E+02
             -0.929293887280551E+00
             -0.489256229805381E+01
             -0.422042736268303E+00
              0.227339054123885E+01
             -0.101676862033994E+02
             -0.804061692433332E+01
             -0.567489738407939E+01
             -0.103426641110476E+02
             -0.296510535098644E+01
             -0.684917458239410E+01
              0.295029317990047E+01
             -0.806918907710372E-01
             -0.200035651581402E+01
             -0.143514020534355E+01
              0.107635076356179E+01
             -0.336595249614426E+01
              0.107314448155482E+02
             -0.140099180643606E+02
             -0.204346012324894E+01
             -0.263103518562215E+01
              0.282439636903436E+01
              0.316346850476223E+01
             -0.820496726412188E+01
             -0.241139633526006E+01
              0.740372005010732E+01
             -0.390002877426243E+01
              0.227907700586047E+01
              0.605527922441838E+01
             -0.106090974215675E+00
              0.190699269839090E+02
             -0.258520744986050E+01
             -0.600428656353529E+01
              0.256035126141796E+00
             -0.453006418237155E+01
              0.854746901257992E+01
             -0.725207769393187E+01
              0.218739694661602E+01
              0.881200693829197E+01
             -0.229644374472329E+01
              0.195479669961097E+02
              0.208822288914019E+02
             -0.117337968925199E+02
              0.947078543327782E+01
              0.331025122269368E+01
             -0.893200912742647E+01
              0.340202581021847E+01
              0.651310371107353E+01
              0.706429575769086E+01
              0.730639589749636E+00
              0.287716094410942E+01
              0.119628182461545E+02
             -0.384571505137203E+01
              0.182207333182816E+01
              0.114336018119410E+02
             -0.598192879485972E+01
             -0.329285543769100E+01
              0.934089712310329E+01
              0.506758304093070E+01
              0.128213336605475E+02
              0.501721770936442E+01
              0.183741925198407E+01
              0.410300947960081E+01
              0.690220988741879E+01
             -0.801591869994409E+01
              0.791530536362444E+00
              0.346105783975181E+01
              0.152382478152974E+01
              0.385068887422854E+01
             -0.100950887026335E+02
              0.566786974583319E+01
             -0.720760986219229E+01
             -0.522769226089684E+01
              0.286864262369457E+01
             -0.207353214619123E+01
              0.951775229111429E+01
             -0.336478045946918E+01
              0.451542757294114E+01
              0.513880775749514E+01
              0.131135950455790E+02
              0.894419273979572E+01
              0.840527456852976E+01
             -0.133603025539376E+01
             -0.135128617404584E+01
             -0.511117203147151E+01
              0.131178311297750E+02
              0.135668902085682E+02
              0.614528262711701E+01
             -0.418076520784199E+01
              0.827034215621222E+01
             -0.996964863724209E+00
              0.338275256744575E+01
              0.110658522638292E+02
             -0.353129286413211E+00
             -0.183373971141202E+01
             -0.426256576087557E+01
             -0.945077258503654E+01
              0.159045224672864E+02
              0.773308817565604E+01
             -0.101993091354944E+02
             -0.295464799172748E+01
              0.413220256847159E+01
             -0.200629265627432E+01
              0.104099724431300E+02
              0.268865325197412E+01
              0.132229246179671E+02
              0.444830608853649E+01
             -0.419286070901830E+01
              0.338551576704248E+01
             -0.104265939680985E+01
             -0.456957128511645E+01
              0.274958479826302E+01
              0.322162087930609E+01
              0.147523560898299E+02
              0.126468674131755E+02
              0.931475616206898E+01
              0.117517223065267E+02
              0.125258653432116E+01
             -0.455255912385408E+01
              0.225257359853018E+01
             -0.573684386881173E+01
             -0.875401856208923E+01
             -0.947727294732697E+01
             -0.497731762131886E+01
             -0.180860470287540E+02
             -0.561754263732774E+01
             -0.140605258528576E+02
              0.309987595520904E+01
             -0.766266001299812E+01
              0.773703554112955E+01
             -0.157151083361095E+02
             -0.506127008994096E+01
              0.750169137842104E+01
              0.356611695645863E+01
             -0.143455047806454E+02
              0.937400473686972E+01
             -0.460744297349660E+01
              0.894064414954989E+01
             -0.475119829054813E+01
             -0.126322848417127E+02
              0.270472795707150E+01
             -0.104565076310357E+02
             -0.149897823887582E+01
             -0.659618783280305E-01
              0.704231294080506E+01
              0.207600428256231E+02
             -0.741272550513327E+01
             -0.620905431708162E+01
             -0.903165460156259E+00
             -0.163976549655444E+01
             -0.132424615343227E+02
             -0.972694626567671E+01
              0.866617380153443E+01
             -0.358874959579565E+01
              0.311916632174222E+01
             -0.807886819852477E+01
             -0.224380498519655E+01
             -0.705326742054152E+01
              0.826621622609035E+01
              0.260172950851447E+01
             -0.405426510167702E+01
             -0.240346667217524E+01
              0.180778700723326E+01
             -0.130271689401238E+01
              0.660794964921703E+01
             -0.441559190480017E+01
              0.115886493065739E+01
              0.543499621991764E+01
              0.245916887271062E+01
             -0.341144571338810E+01
              0.257945198761411E+02
              0.934795588184522E+01
              0.122334130021005E+01
              0.139965877558643E+01
             -0.999377593678283E+01
              0.527685293563632E+01
             -0.123344806804578E+02
             -0.516710065956260E+01
             -0.967485298139961E+01
             -0.307339026353654E+01
              0.964766856204038E+01
             -0.943070568724630E+01
              0.355741924507411E+01
             -0.659228389149021E+00
              0.383470732674908E+00
             -0.575968322832462E+01
             -0.710040049810858E+01
             -0.830222118804954E+00
             -0.633042541045423E+01
             -0.384279181380963E+01
             -0.650577302095250E+01
             -0.112330861835138E+01
             -0.537040803893344E+01
             -0.817796641181670E+01
              0.388098954027461E+01
             -0.255129815168332E+01
              0.350408786536979E+01
              0.170667617635136E+01
             -0.122134501588310E+02
             -0.874708385819623E+01
             -0.760572499055607E+01
              0.565744959486210E+01
             -0.581892212730679E+00
             -0.103573430414071E+02
              0.939052518252315E+01
             -0.707360307112052E+01
              0.914195191524629E+01
             -0.490977749437401E+01
             -0.795182694403262E+01
              0.451127994731692E+01
             -0.117149040216246E+02
             -0.571411308258127E+01
              0.104852074995757E+02
              0.352915731632751E+01
             -0.641712343392092E+01
              0.898846909797559E+01
             -0.269129274479393E+01
             -0.573867871507615E+01
             -0.504807458077063E+01
             -0.861202591890542E+01
              0.402235984600629E+01
             -0.148285121761052E+02
             -0.132761457909245E+02
             -0.105506172402553E+01
             -0.484623240635584E+01
             -0.985315848713048E+01
              0.123116442750288E+02
              0.224125675101593E+02
             -0.447127430898798E+01
             -0.371703960721192E+00
             -0.105001181177998E+02
              0.108128137068244E+02
              0.335111501348618E+01
             -0.296308112814231E+01
             -0.641641258842401E+01
              0.231348291381811E+01
             -0.100041956842640E+02
             -0.213280946098146E+01
             -0.146645362218736E+02
              0.529763440732481E+01
              0.256264245189068E+01
             -0.445797850251267E+00
             -0.149311365513428E+01
             -0.612371486982968E+01
             -0.189472840585516E+01
              0.220851128406244E+02
             -0.271678546371157E+01
             -0.768169976869720E+01
             -0.112184181640144E+02
              0.217092115201159E+01
             -0.595125721795908E+01
              0.115938569809184E+01
              0.512394203253998E+01
              0.103181977474322E+01
              0.564765810493429E+01
              0.272157897905582E+01
              0.100193068112696E+02
              0.470497481871418E+01
             -0.571821520038921E+01
              0.766234262537145E+01
              0.597281397943722E+01
              0.209456980650301E+01
              0.681833745911420E+01
             -0.438222083497692E+01
              0.119672183868321E+02
              0.358340227181239E+01
             -0.531194027698451E+01
             -0.122140883662014E+01
             -0.277982938381957E+01
              0.316317513804712E+01
             -0.440167498019679E+01
             -0.116331518102162E+01
             -0.182971329598014E+01
              0.133567419191525E+02
              0.928165733969690E+01
             -0.112260042822658E+02
             -0.955037244906045E+00
             -0.876751946978787E+01
             -0.237054906760778E+01
             -0.390883924850866E+01
              0.137979641089414E+01
             -0.487688319269489E+00
             -0.443984718910995E+01
              0.199783587086358E+01
             -0.133436580009162E+01
             -0.169524101025539E+01
              0.143108090208487E+02
              0.282668944915516E+01
             -0.134991132688730E+02
             -0.711929749522747E+01
              0.154713445097348E+02
              0.391586473617431E+01
             -0.145830400608432E+01
              0.179881005616610E+02
             -0.313649049596660E+01
             -0.151111709666522E+01
             -0.174805829936672E+01
              0.237554484284860E+01
              0.499146431000830E+01
              0.743341920606397E+00
              0.482526621153346E+01
             -0.234549397332197E+01
             -0.592658420055175E+01
             -0.647885550414965E+01
             -0.808760396381003E+01
              0.734638383813511E+01
              0.249593088208878E+01
              0.633603249507331E+01
              0.266671660455294E+01
              0.146388318421946E+02
              0.292908577792307E+01
             -0.128880653975869E+02
             -0.549356729708568E+01
              0.120886882367197E+01
             -0.471807852075886E+01
              0.103674544835734E+02
             -0.222431194387374E+01
              0.264837921912554E+01
              0.869290564155461E+01
             -0.128934705156678E+02
              0.245343506070963E+02
              0.329911158500691E+01
              0.413930560598578E+01
              0.613454358813113E+01
              0.973614676813369E+00
             -0.540685875742746E+00
              0.554184457537857E+01
             -0.577428250146119E+01
              0.137160740196571E+02
              0.120619900714511E+02
             -0.631620920253253E+01
              0.297958931361129E+01
              0.116723937098107E+02
             -0.369430065119678E+01
              0.307396898333757E+01
              0.619326986137081E+01
              0.720203001728402E+01
             -0.124786062708281E+02
             -0.154695520396621E+01
             -0.498432725442181E+01
             -0.100453091116991E+01
             -0.120302923989904E+01
              0.360738965499309E+00
             -0.286976820629741E+01
             -0.471125821417041E+01
              0.205714700405796E+01
              0.150620467332718E+01
              0.891159073965868E+01
             -0.717040007945625E+01
              0.674765597642590E+01
              0.818172176692376E+01
             -0.218968140467991E+01
              0.130203481494682E+02
             -0.111819834649712E+02
             -0.171060025205675E+02
             -0.900699006023530E+00
             -0.836761051884679E+00
              0.606643212894767E+00
              0.126798854114663E+02
             -0.849318334837211E+00
              0.686448214106635E+01
              0.889642411928947E+01
              0.652857578155799E+01
             -0.748780167814616E+00
              0.103473577610466E+02
             -0.271177614127334E+01
             -0.587698258301924E+01
             -0.711943225700013E+01
              0.106591639650907E+01
              0.633289480867184E+01
             -0.879942490320030E+00
              0.612859938392690E+01
             -0.279591890489428E-02
              0.974607834420506E+01
              0.301304663832892E+01
              0.129040965613673E+01
             -0.753873659502943E+00
              0.509473366541029E+01
              0.659053834720908E+01
              0.306858320510401E+01
             -0.366627791126046E+00
             -0.882784880879097E+01
[...]
             -0.751795742138960E+01
              0.567318157063050E+01
              0.310908450554386E+00
              0.514659953039543E+01
              0.242425465229164E+01
              0.104315109248613E+02
             -0.130746061039460E+02
             -0.805283714281235E+01
             -0.157735304584811E+01
             -0.140760093297613E+02
              0.278585852077412E+01
              0.672272666992353E+01
              0.139918281041946E+01
             -0.365600600259089E+01
              0.383058450872085E+01
              0.228871451226525E+02
              0.477470788594118E+01
              0.260484931929825E+01
             -0.800188488522902E+01
             -0.102988310090248E+02
             -0.276741380860154E+01
              0.478149954210470E+01
             -0.903692190097743E+00
              0.387336690328026E+01
              0.579790537632960E+01
             -0.103734441380032E+02
              0.425851038765670E+01
              0.727221231860227E+01
              0.952348564140480E+01
             -0.141757595833926E+01
              0.172522747043104E+00
             -0.130922035938481E+01
             -0.776464688911229E+01
             -0.119895935774392E+02
              0.129365102153720E+02
             -0.129923062909983E+01
             -0.927073509977486E+01
              0.723428061811553E+00
             -0.456894594816297E+01
              0.146550181839078E+02
             -0.361992363261140E+01
             -0.607073860142644E+01
              0.588761068881423E+01
             -0.227201799608422E+01
              0.729935110418864E+01
             -0.226534545084078E+00
              0.160050812091930E+02
              0.804497723708864E+01
              0.805239344813951E+00
             -0.607327307671511E+01
              0.432226515680951E+01
             -0.898853431290576E+01
             -0.117968073581949E+01
              0.105827953460683E+02
             -0.432635768752569E+01
             -0.730273453178892E+01
             -0.351716765314327E+01
              0.871810668522627E+01
              0.200082266596764E+01
             -0.138406316700223E+02
              0.559685106570723E+01
              0.193931754166947E+01
              0.151837710066953E+01
             -0.827255076230065E+01
              0.106651195192758E+01
              0.571891832037267E+01
              0.822467728648530E+01
              0.104125918010443E+02
              0.522499165527690E+01
              0.917309597905078E+00
             -0.872928521279011E+01
             -0.738968965093616E+01
             -0.115857510211016E+02
             -0.163998862493668E+01
              0.569842722050434E+01
             -0.497851570051292E+00
              0.896849483465020E+01
             -0.523771536595130E+01
              0.285446763768162E+01
             -0.307757580138358E+01
             -0.447068845521912E+01
              0.957574478263429E+01
              0.109282995557081E+01
              0.100000907916608E+02
              0.864765468405537E+00
              0.384993659875040E+01
             -0.265169535031566E+01
              0.986519796799891E+01
             -0.211804806485081E+01
             -0.128870631161099E+00
             -0.130230069550255E+02
             -0.160940048023998E+01
              0.117830169853226E+02
              0.112493674164930E+02
              0.379747963481871E+01
             -0.203607383511032E+01
              0.511484880024653E+00
             -0.339480723428338E+01
             -0.175889463775597E+01
              0.146278154140870E+02
              0.797925081245353E+00
             -0.404489368790449E+01
             -0.180225719062850E+02
             -0.818086695099587E+01
             -0.622371001582212E+01
             -0.103948227520073E+02
             -0.976244393718710E+01
             -0.118742439202162E+02
             -0.745152700606216E+01
             -0.565983564479833E+01
             -0.747957318231128E+01
              0.759051465575354E+01
             -0.391301684753429E+01
             -0.156319988522387E+02
              0.714851255048358E+01
             -0.528601793124131E+01
             -0.129957508992862E+02
              0.165516354266515E+02
             -0.389647703629866E+01
              0.309279374233881E+01
              0.689929979496934E+01
              0.119476227268859E+01
              0.406799338507156E+01
              0.208576432758889E+00
              0.984000732443264E-01
             -0.220087220655903E+01
             -0.119201587032289E+02
              0.187205024567599E+01
             -0.207488500620818E+02
              0.111397601492916E+02
             -0.685570804073634E+01
             -0.262001210684491E+01
             -0.298995323522611E+01
              0.281428575986650E+01
             -0.327206546467529E+01
              0.495622742815132E+01
             -0.916111383155039E+01
              0.637632611851318E+01
              0.664554781395849E+01
              0.228505124766011E+01
              0.152222903758506E+01
              0.340998665135527E+01
              0.115939802664077E+01
              0.540703048939120E+01
             -0.103118586139671E+01
             -0.109323671365865E+02
              0.156549769058446E+01
             -0.488119074772608E+01
             -0.202621481822078E+00
              0.866458606582654E+01
             -0.136598630154109E+02
              0.210895273291115E+00
              0.332118035072234E+00
              0.158695788236374E+01
              0.516377841474219E+01
             -0.229513735668299E+01
              0.140225108250356E+02
              0.690919424560251E+01
             -0.263836079848056E+01
             -0.174308158843678E+01
              0.668123024945523E+00
              0.131336655123405E+02
             -0.865849361490027E+01
             -0.171217582402003E+02
              0.492958345577696E+01
             -0.150422553285510E+01
             -0.240724652571441E+01
              0.287778027562914E+01
              0.127222614557932E+02
              0.720654348895449E+01
             -0.291759934617397E+01
             -0.872033839595034E+01
             -0.167602527508649E+01
              0.475842800422471E+01
             -0.252318353811730E+01
             -0.125583094681250E+02
             -0.106672618342096E+01
             -0.155436423370871E+02
             -0.805455869737873E+01
              0.138266092384472E+02
             -0.837519129031405E+01
             -0.113042004228434E+02
             -0.900929084047253E+01
             -0.631194503162255E+01
              0.556504476567788E+01
              0.138078608727774E+02
             -0.119840657800495E+01
              0.457653416904732E+01
             -0.295391187336286E+01
             -0.111377730663447E+02
              0.871639322908688E+01
             -0.774162749221864E+01
              0.482577352036649E+01
              0.521480066966637E+01
             -0.204097632828161E+01
              0.657938861429821E+01
              0.672303109658665E+01
              0.186706063035595E+02
             -0.230763402107908E+01
             -0.844958187409290E+01
             -0.108881592479081E+02
             -0.249941837587124E+01
             -0.569407207934598E+01
              0.164803068834133E+02
             -0.778289130273161E+01
              0.144398464465976E+01
              0.927417828626531E+00
             -0.372942671751960E+01
             -0.135954754076072E+02
             -0.119877142071618E+01
              0.165062873155335E+02
              0.262933607759704E+01
              0.128779398974289E+01
             -0.893144305926357E+01
             -0.916113208257894E+01
             -0.205044093190657E+01
              0.783063147942605E+01
             -0.416397246398319E+01
              0.171587134118247E+02
             -0.734254082625255E+01
              0.268650048689499E+01
             -0.317257564740117E+01
             -0.107436752222981E+02
              0.853616487177867E+00
             -0.921155237692179E+01
             -0.123300920412989E+02
              0.120317640958159E+01
              0.216615812370822E+00
              0.803120466503285E+01
              0.391669187905124E+01
             -0.577485557213641E+01
              0.388137680973783E+01
             -0.138643072639992E+02
             -0.832915666358583E+01
              0.155415823970926E+02
              0.111259161709152E+01
             -0.184579423590324E+01
             -0.463712594976594E+01
              0.202605484092118E-01
             -0.151320278675533E+01
              0.146374355903029E+02
              0.685792225333881E+01
             -0.196385296519250E+01
             -0.964621734883607E+00
             -0.669718900063192E+01
             -0.262438358310648E+01
             -0.107092064170161E+02
              0.838793563886068E+01
              0.109717768327227E+01
              0.189583590522197E+01
              0.262449668416801E+01
             -0.162401327342873E+01
             -0.338625094504518E+01
              0.269478294770185E+00
             -0.176472702871790E+02
             -0.248325393631215E+01
             -0.133993259865632E+01
             -0.122311194244798E+01
              0.873894629608340E+01
              0.103824524354272E+02
              0.279344776652660E+01
             -0.155794026443526E+02
              0.107719392068057E+02
             -0.400822023352758E+01
             -0.610701462143538E+01
             -0.143396884548814E+02
             -0.548514174777062E+01
              0.971180085471329E+01
              0.508646978546020E+01
              0.243794242666027E+01
              0.530048513673957E+01
             -0.919218521567264E+01
             -0.748480312946796E+01
              0.100342908460371E+02
              0.681355258793225E+01
              0.818697329567479E+01
              0.552778390221601E+00
              0.159635040913650E+01
              0.895731398454484E+01
              0.163813496655617E+02
             -0.394021765245433E+01
              0.610682375609403E+01
             -0.323059052713297E+01
             -0.705254191472342E+01
             -0.548930039414062E+01
             -0.502500617844281E+01
             -0.221993817191241E+01
             -0.818949565999421E+01
             -0.361057617696754E+01
             -0.220301261137291E+02
              0.563320152963124E+01
              0.436244611837108E+01
             -0.382083937369243E+00
             -0.612724440779417E+01
             -0.323572371219167E+01
             -0.899672811940319E+01
              0.162047634870604E+01
              0.133420005115083E+02
             -0.331338308695075E+01
             -0.305366746351987E+01
              0.313319723590334E+01
             -0.826527071593251E+01
              0.146965990632263E+02
              0.279109441144974E+01
              0.195773450888761E+01
              0.867057050592589E+01
             -0.372246140254219E+00
              0.961477793286241E+01
              0.286661299603559E+01
             -0.115631038021972E+01
              0.211182904840221E+01
             -0.100801499661312E+01
              0.119298476930282E+02
              0.136144110155796E+01
              0.296536527073930E+01
             -0.157865629683229E+01
              0.174333760967235E+01
             -0.154704522532322E+02
             -0.586598431954123E+01
             -0.788167572224754E+01
              0.867509396224333E+01
             -0.560192499006811E+01
             -0.998438312857913E+01
              0.946453581051296E+01
             -0.235285274729551E+01
              0.735860126989210E+01
             -0.148449726313463E+02
              0.375062401437624E+01
              0.901571738723511E+00
              0.937725270853377E+00
             -0.184255529754024E+01
             -0.103337725110228E+01
              0.816642243212780E+01
              0.393984346156735E+00
             -0.819110451551471E+01
             -0.347229737334082E+01
              0.365250423610354E+01
             -0.196525809633329E+02
             -0.151321514218552E+02
              0.408387483410017E+00
              0.221080719918613E+01
             -0.797659782972844E+01
             -0.184513156961316E+00
              0.178959271805734E+02
              0.517926352276072E+01
             -0.937471305386904E+01
              0.124152816004963E+01
             -0.155159702374200E+01
              0.208807591797665E+01
             -0.570471997454995E+01
              0.345741125616499E+01
              0.410427842392590E+01
             -0.111788130949641E+01
              0.183740120885488E+02
             -0.150803038372084E+01
             -0.514656345136930E+01
              0.403357289069621E+01
              0.743075553242127E+01
             -0.578802176875904E+01
             -0.155086210294778E+00
              0.162897798322128E+02
             -0.432225334702295E+00
              0.881560442318463E+01
              0.265251197901546E+01
             -0.140507505011494E+01
             -0.329945089142596E+01
              0.846110495243251E+01
             -0.934471024768601E+01
             -0.546362744295259E+00
             -0.308959380320758E+01
             -0.694845586158772E+01
              0.209875904177680E+01
              0.388445466904718E+01
              0.495498231701035E+00
             -0.321240905365471E+00
             -0.653494956484109E+01
              0.286683210828832E+01
             -0.598021539813040E+00
             -0.383358495536579E+01
             -0.351928499954106E+01
              0.335922613994640E+01
             -0.474464504225395E+00
             -0.625747486000305E+01
             -0.176023488783597E+02
              0.887424879681586E+00
              0.333417866373703E+01
             -0.721321239734718E+01
             -0.399734885521163E+01
              0.135350430252393E+02
              0.155121576557877E+01
              0.635620755868906E+01
              0.118966508100117E+01
              0.588760860918597E+01
              0.463798129659068E+00
             -0.655429946031403E+01
             -0.102163737420922E+01
              0.120732128066960E+01
              0.464183956830576E+01
              0.128395015831406E+02
              0.822759369305189E+01
              0.164162494325872E+00
              0.198524760419677E+01
              0.101780943904299E+02
              0.433229462204844E+01
             -0.122576471027206E+02
             -0.461275194620794E+01
              0.245084785975786E+01
              0.143507791373092E+01
              0.418610881510906E+01
             -0.883428802659614E+01
              0.108297768231581E+01
              0.644824855529980E+01
              0.816317996632161E+01
             -0.706626298565298E+01
             -0.396411189245633E+00
             -0.333900240929736E+00
             -0.304610504307923E+01
             -0.483858991097901E+01
             -0.250452993076259E+01
             -0.117944008142005E+01
              0.160135530539576E+01
              0.692921892508718E+01
             -0.511401563256107E+01
              0.136889879528564E+02
              0.543358560099378E+01
              0.396173262660165E+01
              0.611882060524317E+01
              0.473786274650975E+01
              0.554921540138406E+01
              0.916257916892376E+01
             -0.771439075659941E+01
              0.105290155127639E+02
             -0.187101496119204E+02
              0.520509112628549E+01
             -0.175133830884206E+02
              0.134866162306968E+02
              0.125247005333697E+02
             -0.151324777481095E+01
             -0.801135904874469E+01
             -0.720927292923052E+01
             -0.959950549923397E+01
             -0.108205506494322E+02
              0.897411374330748E+01
              0.706448480112021E+01
              0.395509149919664E+01
              0.520136085750462E+01
              0.673796214142854E+01
             -0.668815716744017E+01
             -0.265697804227375E+01
              0.937645261270747E+01
             -0.202884095260321E+01
              0.848500524534605E+01
              0.124445108155168E+02
             -0.597724380484508E+00
             -0.123089701884616E+02
              0.498114333771412E+00
              0.280220234811784E+00
             -0.154103450130216E+01
              0.280199878681806E+00
             -0.110070386573934E+02
             -0.237802082695596E+01
              0.196548647733322E+01
              0.183897913647525E+01
              0.808314997534640E+01
             -0.656278024691431E+01
              0.983863252083805E+01
             -0.662876777083740E+01
              0.401777166551057E+01
              0.686269931666532E+01
 BEEF xc energy contributions
           1 :   -120.798544735081     
           2 :    101.715473899987     
           3 :   -75.4055516748477     
           4 :    51.6484347959997     
           5 :   -33.7371214394050     
           6 :    21.5250810773467     
           7 :   -13.6873815102272     
           8 :    8.80876537283641     
           9 :   -5.62593890895998     
          10 :    3.27838045555931     
          11 :   -1.39833187627058     
          12 :  -0.117822254748780     
          13 :    1.31823308540073     
          14 :   -2.17962088129286     
          15 :    2.63945885844501     
          16 :   -2.69312744230430     
          17 :    2.43193818758643     
          18 :   -2.01620970157795     
          19 :    1.60251149118760     
          20 :   -1.28260716229944     
          21 :    1.06766081809311     
          22 :  -0.912275680160758     
          23 :   0.757728362832903     
          24 :  -0.565904773937335     
          25 :   0.343942194571845     
          26 :  -0.136490619073015     
          27 :  -4.272877059655456E-003
          28 :   4.759371171557578E-002
          29 :   5.932167897627905E-005
          30 :  -0.101302398571408     
          31 :   -15.5742711406072     
          32 :   -10.1113415619282     
    POTLOK:  cpu time   34.7397: real time   34.7604


--------------------------------------------------------------------------------------------------------


 stress matrix after NEB project (eV)
     -0.03897      0.00000      0.00000
     -0.00000     -0.03897      0.00000
      0.00000      0.00000     -0.02539
  FORCES: max atom, RMS     0.024628    0.024628
  FORCE total and by dimension    0.034829    0.024628
  Stress total and by dimension    0.060684    0.038973


--------------------------------------------------------------------------------------------------------


  
 reached required accuracy - stopping structural energy minimisation
 writing wavefunctions
     LOOP+:  cpu time  309.8568: real time  310.1366
    4ORBIT:  cpu time    0.0000: real time    0.0000

 total amount of memory used by VASP MPI-rank0   117547. kBytes
=======================================================================

   base      :      30000. kBytes
   nonl-proj :       3020. kBytes
   fftplans  :      32333. kBytes
   grid      :      51285. kBytes
   one-center:          3. kBytes
   wavefun   :        906. kBytes
 
  
  
 General timing and accounting informations for this job:
 ========================================================
  
                  Total CPU time used (sec):      980.668
                            User time (sec):      962.710
                          System time (sec):       17.958
                         Elapsed time (sec):      984.702
  
                   Maximum memory used (kb):      625140.
                   Average memory used (kb):           0.
  
                          Minor page faults:       739639
                          Major page faults:          227
                 Voluntary context switches:        29236
