<?xml version="1.0" encoding="ISO-8859-1"?>
<modeling>
 <generator>
  <i name="program" type="string">vasp </i>
  <i name="version" type="string">5.4.4.18Apr17-6-g9f103f2a35  </i>
  <i name="subversion" type="string">(build Oct 12 2018 15:21:48) complex            parallel </i>
  <i name="platform" type="string">LinuxIFC </i>
  <i name="date" type="string">2019 08 02 </i>
  <i name="time" type="string">09:57:46 </i>
 </generator>
 <incar>
  <i type="int" name="ISTART">     1</i>
  <i type="string" name="PREC">accurate</i>
  <i type="string" name="ALGO"> Normal</i>
  <i type="int" name="NELM">   350</i>
  <i type="int" name="IBRION">     2</i>
  <i name="EDIFF">      0.00010000</i>
  <i name="EDIFFG">     -0.02500000</i>
  <i type="int" name="NSW">   200</i>
  <i name="ENCUT">    500.00000000</i>
  <i type="int" name="ISMEAR">    -1</i>
  <i name="SIGMA">      0.10000000</i>
  <i type="logical" name="LBEEFENS"> T  </i>
  <v type="int" name="KPOINT_BSE">    -1     0     0     0</v>
  <i type="int" name="NELM">   350</i>
  <i type="string" name="GGA"> BF</i>
  <i type="logical" name="LUSE_VDW"> T  </i>
  <i name="Zab_VDW">     -1.88670000</i>
  <i type="logical" name="LDIPOL"> F  </i>
 </incar>
 <structure name="primitive_cell" >
  <crystal>
   <varray name="basis" >
    <v>      14.00000000       0.00000000       0.00000000 </v>
    <v>       0.00000000      14.00000000       0.00000000 </v>
    <v>       0.00000000       0.00000000      15.15034000 </v>
   </varray>
   <i name="volume">   2969.46664000 </i>
   <varray name="rec_basis" >
    <v>       0.07142857       0.00000000       0.00000000 </v>
    <v>       0.00000000       0.07142857       0.00000000 </v>
    <v>       0.00000000       0.00000000       0.06600512 </v>
   </varray>
  </crystal>
  <varray name="positions" >
   <v>      -0.50000000      -0.50000000      -0.46203584 </v>
   <v>      -0.50000000      -0.50000000       0.46203584 </v>
  </varray>
 </structure>
 <varray name="primitive_index" >
  <v type="int" >        1 </v>
  <v type="int" >        2 </v>
 </varray>
 <kpoints>
  <generation param="Monkhorst-Pack">
   <v type="int" name="divisions">       1        1        1 </v>
   <v name="usershift">      0.00000000       0.00000000       0.00000000 </v>
   <v name="genvec1">      1.00000000       0.00000000       0.00000000 </v>
   <v name="genvec2">      0.00000000       1.00000000       0.00000000 </v>
   <v name="genvec3">      0.00000000       0.00000000       1.00000000 </v>
   <v name="shift">      0.00000000       0.00000000       0.00000000 </v>
  </generation>
  <varray name="kpointlist" >
   <v>       0.00000000       0.00000000       0.00000000 </v>
  </varray>
  <varray name="weights" >
   <v>       1.00000000 </v>
  </varray>
 </kpoints>
 <parameters>
  <separator name="general" >
   <i type="string" name="SYSTEM">unknown system</i>
   <i type="logical" name="LCOMPAT"> F  </i>
  </separator>
  <separator name="electronic" >
   <i type="string" name="PREC">accura</i>
   <i name="ENMAX">    500.00000000</i>
   <i name="ENAUG">    644.87300000</i>
   <i name="EDIFF">      0.00010000</i>
   <i type="int" name="IALGO">    38</i>
   <i type="int" name="IWAVPR">    11</i>
   <i type="int" name="NBANDS">    12</i>
   <i name="NELECT">     10.00000000</i>
   <i type="int" name="TURBO">     0</i>
   <i type="int" name="IRESTART">     0</i>
   <i type="int" name="NREBOOT">     0</i>
   <i type="int" name="NMIN">     0</i>
   <i name="EREF">      0.00000000</i>
   <separator name="electronic smearing" >
    <i type="int" name="ISMEAR">    -1</i>
    <i name="SIGMA">      0.10000000</i>
    <i name="KSPACING">      0.50000000</i>
    <i type="logical" name="KGAMMA"> T  </i>
   </separator>
   <separator name="electronic projectors" >
    <i type="logical" name="LREAL"> F  </i>
    <v name="ROPT">      0.00000000      0.00000000</v>
    <i type="int" name="LMAXPAW">  -100</i>
    <i type="int" name="LMAXMIX">     2</i>
    <i type="logical" name="NLSPLINE"> F  </i>
   </separator>
   <separator name="electronic startup" >
    <i type="int" name="ISTART">     0</i>
    <i type="int" name="ICHARG">     2</i>
    <i type="int" name="INIWAV">     1</i>
   </separator>
   <separator name="electronic spin" >
    <i type="int" name="ISPIN">     1</i>
    <i type="logical" name="LNONCOLLINEAR"> F  </i>
    <v name="MAGMOM">      1.00000000      1.00000000</v>
    <i name="NUPDOWN">     -1.00000000</i>
    <i type="logical" name="LSORBIT"> F  </i>
    <v name="SAXIS">      0.00000000      0.00000000      1.00000000</v>
    <i type="logical" name="LSPIRAL"> F  </i>
    <v name="QSPIRAL">      0.00000000      0.00000000      0.00000000</v>
    <i type="logical" name="LZEROZ"> F  </i>
   </separator>
   <separator name="electronic exchange-correlation" >
    <i type="logical" name="LASPH"> F  </i>
    <i type="logical" name="LMETAGGA"> F  </i>
   </separator>
   <separator name="electronic convergence" >
    <i type="int" name="NELM">   350</i>
    <i type="int" name="NELMDL">     0</i>
    <i type="int" name="NELMIN">     2</i>
    <i name="ENINI">    500.00000000</i>
    <separator name="electronic convergence detail" >
     <i type="logical" name="LDIAG"> T  </i>
     <i type="logical" name="LSUBROT"> F  </i>
     <i name="WEIMIN">      0.00100000</i>
     <i name="EBREAK">      0.00000208</i>
     <i name="DEPER">      0.30000000</i>
     <i type="int" name="NRMM">     4</i>
     <i name="TIME">      0.40000000</i>
    </separator>
   </separator>
   <separator name="electronic mixer" >
    <i name="AMIX">      0.40000000</i>
    <i name="BMIX">      1.00000000</i>
    <i name="AMIN">      0.10000000</i>
    <i name="AMIX_MAG">      1.60000000</i>
    <i name="BMIX_MAG">      1.00000000</i>
    <separator name="electronic mixer details" >
     <i type="int" name="IMIX">     4</i>
     <i type="logical" name="MIXFIRST"> F  </i>
     <i type="int" name="MAXMIX">   -45</i>
     <i name="WC">    100.00000000</i>
     <i type="int" name="INIMIX">     1</i>
     <i type="int" name="MIXPRE">     1</i>
     <i type="int" name="MREMOVE">     5</i>
    </separator>
   </separator>
   <separator name="electronic dipolcorrection" >
    <i type="logical" name="LDIPOL"> F  </i>
    <i type="logical" name="LMONO"> F  </i>
    <i type="int" name="IDIPOL">     0</i>
    <i name="EPSILON">      1.00000000</i>
    <v name="DIPOL">   -100.00000000   -100.00000000   -100.00000000</v>
    <i name="EFIELD">      0.00000000</i>
   </separator>
  </separator>
  <separator name="grids" >
   <i type="int" name="NGX">   108</i>
   <i type="int" name="NGY">   108</i>
   <i type="int" name="NGZ">   112</i>
   <i type="int" name="NGXF">   216</i>
   <i type="int" name="NGYF">   216</i>
   <i type="int" name="NGZF">   224</i>
   <i type="logical" name="ADDGRID"> F  </i>
  </separator>
  <separator name="ionic" >
   <i type="int" name="NSW">   200</i>
   <i type="int" name="IBRION">     2</i>
   <i type="int" name="MDALGO">     0</i>
   <i type="int" name="ISIF">     2</i>
   <i name="PSTRESS">      0.00000000</i>
   <i name="EDIFFG">     -0.02500000</i>
   <i type="int" name="NFREE">     1</i>
   <i name="POTIM">      0.50000000</i>
   <i name="SMASS">     -3.00000000</i>
   <i name="SCALEE">      1.00000000</i>
  </separator>
  <separator name="ionic md" >
   <i name="TEBEG">      0.00010000</i>
   <i name="TEEND">      0.00010000</i>
   <i type="int" name="NBLOCK">     1</i>
   <i type="int" name="KBLOCK">   200</i>
   <i type="int" name="NPACO">   256</i>
   <i name="APACO">     16.00000000</i>
  </separator>
  <separator name="symmetry" >
   <i type="int" name="ISYM">     2</i>
   <i name="SYMPREC">      0.00001000</i>
  </separator>
  <separator name="dos" >
   <i type="int" name="LORBIT">     0</i>
   <v name="RWIGS">     -1.00000000     -1.00000000</v>
   <i type="int" name="NEDOS">   301</i>
   <i name="EMIN">     10.00000000</i>
   <i name="EMAX">    -10.00000000</i>
   <i name="EFERMI">      0.00000000</i>
  </separator>
  <separator name="writing" >
   <i type="int" name="NWRITE">     2</i>
   <i type="logical" name="LWAVE"> T  </i>
   <i type="logical" name="LDOWNSAMPLE"> F  </i>
   <i type="logical" name="LCHARG"> T  </i>
   <i type="logical" name="LPARD"> F  </i>
   <i type="logical" name="LVTOT"> F  </i>
   <i type="logical" name="LVHAR"> F  </i>
   <i type="logical" name="LELF"> F  </i>
   <i type="logical" name="LOPTICS"> F  </i>
   <v name="STM">      0.00000000      0.00000000      0.00000000      0.00000000      0.00000000      0.00000000      0.00000000</v>
  </separator>
  <separator name="performance" >
   <i type="int" name="NPAR">     4</i>
   <i type="int" name="NSIM">     4</i>
   <i type="int" name="NBLK">    -1</i>
   <i type="logical" name="LPLANE"> T  </i>
   <i type="logical" name="LSCALAPACK"> T  </i>
   <i type="logical" name="LSCAAWARE"> F  </i>
   <i type="logical" name="LSCALU"> F  </i>
   <i type="logical" name="LASYNC"> F  </i>
   <i type="logical" name="LORBITALREAL"> F  </i>
  </separator>
  <separator name="miscellaneous" >
   <i type="int" name="IDIOT">     3</i>
   <i type="int" name="ISPECIAL">     0</i>
   <i type="logical" name="LMUSIC"> F  </i>
   <v name="POMASS">     16.00000000     12.01100000</v>
   <v name="DARWINR">      0.00000000      0.00000000</v>
   <v name="DARWINV">      1.00000000      1.00000000</v>
   <i type="logical" name="LCORR"> T  </i>
  </separator>
  <i type="logical" name="GGA_COMPAT"> T  </i>
  <i type="logical" name="LBERRY"> F  </i>
  <i type="int" name="ICORELEVEL">     0</i>
  <i type="logical" name="LDAU"> F  </i>
  <i type="int" name="I_CONSTRAINED_M">     0</i>
  <separator name="electronic exchange-correlation" >
   <i type="string" name="GGA">BF</i>
   <i type="int" name="VOSKOWN">     0</i>
   <i type="logical" name="LHFCALC"> F  </i>
   <i type="string" name="PRECFOCK"></i>
   <i type="logical" name="LSYMGRAD"> F  </i>
   <i type="logical" name="LHFONE"> F  </i>
   <i type="logical" name="LRHFCALC"> F  </i>
   <i type="logical" name="LTHOMAS"> F  </i>
   <i type="logical" name="LMODELHF"> F  </i>
   <i name="ENCUT4O">     -1.00000000</i>
   <i type="int" name="EXXOEP">     0</i>
   <i type="int" name="FOURORBIT">     0</i>
   <i name="AEXX">      0.00000000</i>
   <i name="HFALPHA">      0.00000000</i>
   <i name="MCALPHA">      0.00000000</i>
   <i name="ALDAX">      1.00000000</i>
   <i name="AGGAX">      1.00000000</i>
   <i name="ALDAC">      1.00000000</i>
   <i name="AGGAC">      1.00000000</i>
   <i type="int" name="NKREDX">     1</i>
   <i type="int" name="NKREDY">     1</i>
   <i type="int" name="NKREDZ">     1</i>
   <i type="logical" name="SHIFTRED"> F  </i>
   <i type="logical" name="ODDONLY"> F  </i>
   <i type="logical" name="EVENONLY"> F  </i>
   <i type="int" name="LMAXFOCK">     0</i>
   <i type="int" name="NMAXFOCKAE">     0</i>
   <i type="logical" name="LFOCKAEDFT"> F  </i>
   <i name="HFSCREEN">      0.00000000</i>
   <i name="HFSCREENC">      0.00000000</i>
   <i type="int" name="NBANDSGWLOW">     0</i>
  </separator>
  <separator name="vdW DFT" >
   <i type="logical" name="LUSE_VDW"> T  </i>
   <i name="Zab_VDW">     -1.88670000</i>
   <i name="PARAM1">      0.12340000</i>
   <i name="PARAM2">      1.00000000</i>
   <i name="PARAM3">      0.00000000</i>
  </separator>
  <separator name="model GW" >
   <i type="int" name="MODEL_GW">     0</i>
   <i name="MODEL_EPS0">    890.83999200</i>
   <i name="MODEL_ALPHA">      1.00000000</i>
  </separator>
  <separator name="linear response parameters" >
   <i type="logical" name="LEPSILON"> F  </i>
   <i type="logical" name="LRPA"> F  </i>
   <i type="logical" name="LNABLA"> F  </i>
   <i type="logical" name="LVEL"> F  </i>
   <i type="int" name="KINTER">     0</i>
   <i name="CSHIFT">      0.10000000</i>
   <i name="OMEGAMAX">     -1.00000000</i>
   <i name="DEG_THRESHOLD">      0.00200000</i>
   <i name="RTIME">     -0.10000000</i>
   <i name="WPLASMAI">      0.00000000</i>
   <v name="DFIELD">      0.00000000      0.00000000      0.00000000</v>
   <v name="WPLASMA">      0.00000000      0.00000000      0.00000000      0.00000000      0.00000000      0.00000000      0.00000000      0.00000000      0.00000000</v>
  </separator>
  <separator name="orbital magnetization" >
   <i type="logical" name="NUCIND"> F  </i>
   <v name="MAGPOS">      0.00000000      0.00000000      0.00000000</v>
   <i type="logical" name="LNICSALL"> T  </i>
   <i type="logical" name="ORBITALMAG"> F  </i>
   <i type="logical" name="LMAGBLOCH"> F  </i>
   <i type="logical" name="LCHIMAG"> F  </i>
   <i type="logical" name="LGAUGE"> T  </i>
   <i type="int" name="MAGATOM">     0</i>
   <v name="MAGDIPOL">      0.00000000      0.00000000      0.00000000</v>
   <v name="AVECCONST">      0.00000000      0.00000000      0.00000000</v>
  </separator>
  <separator name="response functions" >
   <i type="logical" name="LADDER"> F  </i>
   <i type="logical" name="LRPAFORCE"> F  </i>
   <i type="logical" name="LFXC"> F  </i>
   <i type="logical" name="LHARTREE"> T  </i>
   <i type="int" name="IBSE">     0</i>
   <v type="int" name="KPOINT">    -1     0     0     0</v>
   <i type="logical" name="LTCTE"> F  </i>
   <i type="logical" name="LTETE"> F  </i>
   <i type="logical" name="LTRIPLET"> F  </i>
   <i type="logical" name="LFXCEPS"> F  </i>
   <i type="logical" name="LFXHEG"> F  </i>
   <i type="int" name="NATURALO">     2</i>
   <i type="logical" name="L2ORDER"> F  </i>
   <i type="logical" name="LMP2LT"> F  </i>
   <i type="logical" name="LUSEW"> F  </i>
   <i name="ENCUTGW">     -2.00000000</i>
   <i name="ENCUTGWSOFT">     -2.00000000</i>
   <i name="ENCUTLF">     -1.00000000</i>
   <i type="int" name="LMAXMP2">    -1</i>
   <i name="SCISSOR">      0.00000000</i>
   <i type="int" name="NOMEGA">     0</i>
   <i type="int" name="NOMEGAR">     0</i>
   <i type="int" name="NBANDSGW">    -1</i>
   <i type="int" name="NBANDSO">    -1</i>
   <i type="int" name="NBANDSV">    -1</i>
   <i type="int" name="NELM">   350</i>
   <i type="int" name="NELMHF">     1</i>
   <i type="int" name="DIM">     3</i>
   <i type="int" name="ANTIRES">     0</i>
   <i name="OMEGAMAX">    -30.00000000</i>
   <i name="OMEGAMIN">    -30.00000000</i>
   <i name="OMEGATL">   -200.00000000</i>
   <i type="int" name="OMEGAGRID">   140</i>
   <i name="CSHIFT">     -0.10000000</i>
   <i type="logical" name="SELFENERGY"> F  </i>
   <i type="logical" name="LSPECTRAL"> F  </i>
   <i type="logical" name="LSPECTRALGW"> F  </i>
   <i type="logical" name="LSINGLES"> F  </i>
   <i type="logical" name="LFERMIGW"> F  </i>
   <i type="logical" name="ODDONLYGW"> F  </i>
   <i type="logical" name="EVENONLYGW"> F  </i>
   <i type="int" name="NKREDLFX">     1</i>
   <i type="int" name="NKREDLFY">     1</i>
   <i type="int" name="NKREDLFZ">     1</i>
   <i type="int" name="MAXMEM">  2800</i>
   <i type="int" name="TELESCOPE">     0</i>
   <i type="int" name="TAUPAR">     1</i>
   <i type="int" name="OMEGAPAR">    -1</i>
   <i name="LAMBDA">      1.00000000</i>
  </separator>
  <separator name="External order field" >
   <i name="OFIELD_KAPPA">      0.00000000</i>
   <v name="OFIELD_K">      0.00000000      0.00000000      0.00000000</v>
   <i name="OFIELD_Q6_NEAR">      0.00000000</i>
   <i name="OFIELD_Q6_FAR">      0.00000000</i>
   <i name="OFIELD_A">      0.00000000</i>
  </separator>
  <separator name="solvation model" >
   <i type="logical" name="LSOL"> F  </i>
  </separator>
 </parameters>
 <atominfo>
  <atoms>       2 </atoms>
  <types>       2 </types>
  <array name="atoms" >
   <dimension dim="1">ion</dimension>
   <field type="string">element</field>
   <field type="int">atomtype</field>
   <set>
    <rc><c>O </c><c>   1</c></rc>
    <rc><c>C </c><c>   2</c></rc>
   </set>
  </array>
  <array name="atomtypes" >
   <dimension dim="1">type</dimension>
   <field type="int">atomspertype</field>
   <field type="string">element</field>
   <field>mass</field>
   <field>valence</field>
   <field type="string">pseudopotential</field>
   <set>
    <rc><c>   1</c><c>O </c><c>     16.00000000</c><c>      6.00000000</c><c>  PAW_PBE O 08Apr2002                   </c></rc>
    <rc><c>   1</c><c>C </c><c>     12.01100000</c><c>      4.00000000</c><c>  PAW_PBE C 08Apr2002                   </c></rc>
   </set>
  </array>
 </atominfo>
 <structure name="initialpos" >
  <crystal>
   <varray name="basis" >
    <v>      14.00000000       0.00000000       0.00000000 </v>
    <v>       0.00000000      14.00000000       0.00000000 </v>
    <v>       0.00000000       0.00000000      15.15034000 </v>
   </varray>
   <i name="volume">   2969.46664000 </i>
   <varray name="rec_basis" >
    <v>       0.07142857       0.00000000       0.00000000 </v>
    <v>       0.00000000       0.07142857       0.00000000 </v>
    <v>       0.00000000       0.00000000       0.06600512 </v>
   </varray>
  </crystal>
  <varray name="positions" >
   <v>       0.50000000       0.50000000       0.53796416 </v>
   <v>       0.50000000       0.50000000       0.46203584 </v>
  </varray>
 </structure>
 <calculation>
  <scstep>
   <time name="dav">    0.27    0.34</time>
   <time name="total">   23.24   23.32</time>
   <energy>
    <i name="alphaZ">      0.14715018 </i>
    <i name="ewald">    158.85504420 </i>
    <i name="hartreedc">   -619.72021204 </i>
    <i name="XCdc">     39.61854878 </i>
    <i name="pawpsdc">    455.07029581 </i>
    <i name="pawaedc">   -457.86403136 </i>
    <i name="eentropy">     -0.21293589 </i>
    <i name="bandstr">    -69.00274174 </i>
    <i name="atom">    587.33585529 </i>
    <i name="e_fr_energy">     94.22697324 </i>
    <i name="e_wo_entrp">     94.43990913 </i>
    <i name="e_0_energy">     94.33344119 </i>
   </energy>
  </scstep>
  <scstep>
   <time name="dav">    0.34    0.35</time>
   <time name="total">    0.34    0.35</time>
   <energy>
    <i name="e_fr_energy">      3.32087065 </i>
    <i name="e_wo_entrp">      3.32087065 </i>
    <i name="e_0_energy">      3.32087065 </i>
   </energy>
  </scstep>
  <scstep>
   <time name="dav">    0.37    0.37</time>
   <time name="total">    0.37    0.37</time>
   <energy>
    <i name="e_fr_energy">    -12.82851402 </i>
    <i name="e_wo_entrp">    -12.82851402 </i>
    <i name="e_0_energy">    -12.82851402 </i>
   </energy>
  </scstep>
  <scstep>
   <time name="dav">    0.29    0.29</time>
   <time name="total">    0.29    0.29</time>
   <energy>
    <i name="e_fr_energy">    -13.01383002 </i>
    <i name="e_wo_entrp">    -13.01383002 </i>
    <i name="e_0_energy">    -13.01383002 </i>
   </energy>
  </scstep>
  <scstep>
   <time name="dav">    0.29    0.29</time>
   <time name="total">    0.47    0.47</time>
   <energy>
    <i name="e_fr_energy">    -13.01395371 </i>
    <i name="e_wo_entrp">    -13.01395371 </i>
    <i name="e_0_energy">    -13.01395371 </i>
   </energy>
  </scstep>
  <scstep>
   <time name="dav">    0.22    0.22</time>
   <time name="total">   22.92   22.93</time>
   <energy>
    <i name="e_fr_energy">    -12.23962015 </i>
    <i name="e_wo_entrp">    -12.23962014 </i>
    <i name="e_0_energy">    -12.23962014 </i>
   </energy>
  </scstep>
  <scstep>
   <time name="dav">    0.27    0.27</time>
   <time name="total">   22.97   22.98</time>
   <energy>
    <i name="e_fr_energy">    -12.09522667 </i>
    <i name="e_wo_entrp">    -12.09522667 </i>
    <i name="e_0_energy">    -12.09522667 </i>
   </energy>
  </scstep>
  <scstep>
   <time name="dav">    0.24    0.24</time>
   <time name="total">   22.95   22.95</time>
   <energy>
    <i name="e_fr_energy">    -12.05803059 </i>
    <i name="e_wo_entrp">    -12.05803059 </i>
    <i name="e_0_energy">    -12.05803059 </i>
   </energy>
  </scstep>
  <scstep>
   <time name="dav">    0.22    0.22</time>
   <time name="total">   22.93   22.94</time>
   <energy>
    <i name="e_fr_energy">    -12.05731304 </i>
    <i name="e_wo_entrp">    -12.05731304 </i>
    <i name="e_0_energy">    -12.05731304 </i>
   </energy>
  </scstep>
  <scstep>
   <time name="dav">    0.22    0.22</time>
   <time name="total">   22.94   22.95</time>
   <energy>
    <i name="e_fr_energy">    -12.05840189 </i>
    <i name="e_wo_entrp">    -12.05840189 </i>
    <i name="e_0_energy">    -12.05840189 </i>
   </energy>
  </scstep>
  <scstep>
   <time name="dav">    0.22    0.22</time>
   <time name="total">   22.93   22.94</time>
   <energy>
    <i name="e_fr_energy">    -12.06025647 </i>
    <i name="e_wo_entrp">    -12.06025647 </i>
    <i name="e_0_energy">    -12.06025647 </i>
   </energy>
  </scstep>
  <scstep>
   <time name="dav">    0.22    0.22</time>
   <time name="total">   22.94   22.95</time>
   <energy>
    <i name="e_fr_energy">    -12.06158026 </i>
    <i name="e_wo_entrp">    -12.06158026 </i>
    <i name="e_0_energy">    -12.06158026 </i>
   </energy>
  </scstep>
  <scstep>
   <time name="dav">    0.22    0.22</time>
   <time name="total">   22.93   22.95</time>
   <energy>
    <i name="e_fr_energy">    -12.06254951 </i>
    <i name="e_wo_entrp">    -12.06254951 </i>
    <i name="e_0_energy">    -12.06254951 </i>
   </energy>
  </scstep>
  <scstep>
   <time name="dav">    0.27    0.27</time>
   <time name="total">   23.00   23.00</time>
   <energy>
    <i name="e_fr_energy">    -12.06288289 </i>
    <i name="e_wo_entrp">    -12.06288289 </i>
    <i name="e_0_energy">    -12.06288289 </i>
   </energy>
  </scstep>
  <scstep>
   <time name="dav">    0.24    0.24</time>
   <time name="total">   22.96   22.96</time>
   <energy>
    <i name="e_fr_energy">    -12.06324384 </i>
    <i name="e_wo_entrp">    -12.06324384 </i>
    <i name="e_0_energy">    -12.06324384 </i>
   </energy>
  </scstep>
  <scstep>
   <time name="dav">    0.24    0.24</time>
   <time name="total">   22.79   22.80</time>
   <energy>
    <i name="alphaZ">      0.14715018 </i>
    <i name="ewald">    158.85504420 </i>
    <i name="hartreedc">   -642.66639010 </i>
    <i name="XCdc">     40.98461548 </i>
    <i name="pawpsdc">    859.88930267 </i>
    <i name="pawaedc">   -862.67462971 </i>
    <i name="eentropy">     -0.00000000 </i>
    <i name="bandstr">   -153.93423560 </i>
    <i name="atom">    587.33585529 </i>
    <i name="e_fr_energy">    -12.06328759 </i>
    <i name="e_wo_entrp">    -12.06328759 </i>
    <i name="e_0_energy">    -12.06328759 </i>
   </energy>
  </scstep>
  <structure>
   <crystal>
    <varray name="basis" >
     <v>      14.00000000       0.00000000       0.00000000 </v>
     <v>       0.00000000      14.00000000       0.00000000 </v>
     <v>       0.00000000       0.00000000      15.15034000 </v>
    </varray>
    <i name="volume">   2969.46664000 </i>
    <varray name="rec_basis" >
     <v>       0.07142857       0.00000000       0.00000000 </v>
     <v>       0.00000000       0.07142857       0.00000000 </v>
     <v>       0.00000000       0.00000000       0.06600512 </v>
    </varray>
   </crystal>
   <varray name="positions" >
    <v>       0.50000000       0.50000000       0.53796416 </v>
    <v>       0.50000000       0.50000000       0.46203584 </v>
   </varray>
  </structure>
  <varray name="forces" >
   <v>      -0.00000000       0.00000000      -0.92631789 </v>
   <v>       0.00000000       0.00000000       0.92631789 </v>
  </varray>
  <varray name="stress" >
   <v>      -0.02163336       0.00000000       0.00000000 </v>
   <v>       0.00000000      -0.02163336       0.00000000 </v>
   <v>      -0.00000000       0.00000000      -0.60316473 </v>
  </varray>
  <energy>
   <i name="e_fr_energy">    -12.06328759 </i>
   <i name="e_wo_entrp">    -12.06328759 </i>
   <i name="e_0_energy">     -0.00000000 </i>
  </energy>
  <time name="totalsc">  345.92  347.62</time>
 </calculation>
 <calculation>
  <scstep>
   <time name="dav">    0.24    0.24</time>
   <time name="total">   22.97   22.99</time>
   <energy>
    <i name="alphaZ">      0.14715018 </i>
    <i name="ewald">    184.12560187 </i>
    <i name="hartreedc">   -656.80493777 </i>
    <i name="XCdc">     41.43506842 </i>
    <i name="pawpsdc">    859.90292774 </i>
    <i name="pawaedc">   -862.68822066 </i>
    <i name="eentropy">     -0.00000000 </i>
    <i name="bandstr">   -165.09317239 </i>
    <i name="atom">    587.33585529 </i>
    <i name="e_fr_energy">    -11.63972732 </i>
    <i name="e_wo_entrp">    -11.63972732 </i>
    <i name="e_0_energy">    -11.63972732 </i>
   </energy>
  </scstep>
  <scstep>
   <time name="dav">    0.27    0.27</time>
   <time name="total">   22.95   22.96</time>
   <energy>
    <i name="e_fr_energy">    -11.63285551 </i>
    <i name="e_wo_entrp">    -11.63285551 </i>
    <i name="e_0_energy">    -11.63285551 </i>
   </energy>
  </scstep>
  <scstep>
   <time name="dav">    0.32    0.32</time>
   <time name="total">   22.99   23.00</time>
   <energy>
    <i name="e_fr_energy">    -11.61091534 </i>
    <i name="e_wo_entrp">    -11.61091534 </i>
    <i name="e_0_energy">    -11.61091534 </i>
   </energy>
  </scstep>
  <scstep>
   <time name="dav">    0.27    0.27</time>
   <time name="total">   22.94   22.96</time>
   <energy>
    <i name="e_fr_energy">    -11.60947182 </i>
    <i name="e_wo_entrp">    -11.60947182 </i>
    <i name="e_0_energy">    -11.60947182 </i>
   </energy>
  </scstep>
  <scstep>
   <time name="dav">    0.22    0.22</time>
   <time name="total">   22.92   22.93</time>
   <energy>
    <i name="e_fr_energy">    -11.60976809 </i>
    <i name="e_wo_entrp">    -11.60976809 </i>
    <i name="e_0_energy">    -11.60976809 </i>
   </energy>
  </scstep>
  <scstep>
   <time name="dav">    0.24    0.24</time>
   <time name="total">   22.92   22.93</time>
   <energy>
    <i name="e_fr_energy">    -11.61004948 </i>
    <i name="e_wo_entrp">    -11.61004948 </i>
    <i name="e_0_energy">    -11.61004948 </i>
   </energy>
  </scstep>
  <scstep>
   <time name="dav">    0.22    0.22</time>
   <time name="total">   23.01   23.03</time>
   <energy>
    <i name="e_fr_energy">    -11.61049840 </i>
    <i name="e_wo_entrp">    -11.61049840 </i>
    <i name="e_0_energy">    -11.61049840 </i>
   </energy>
  </scstep>
  <scstep>
   <time name="dav">    0.24    0.24</time>
   <time name="total">   23.04   23.05</time>
   <energy>
    <i name="e_fr_energy">    -11.61103456 </i>
    <i name="e_wo_entrp">    -11.61103456 </i>
    <i name="e_0_energy">    -11.61103456 </i>
   </energy>
  </scstep>
  <scstep>
   <time name="dav">    0.27    0.27</time>
   <time name="total">   23.07   23.09</time>
   <energy>
    <i name="e_fr_energy">    -11.61117802 </i>
    <i name="e_wo_entrp">    -11.61117802 </i>
    <i name="e_0_energy">    -11.61117802 </i>
   </energy>
  </scstep>
  <scstep>
   <time name="dav">    0.27    0.27</time>
   <time name="total">   23.06   23.08</time>
   <energy>
    <i name="e_fr_energy">    -11.61149236 </i>
    <i name="e_wo_entrp">    -11.61149236 </i>
    <i name="e_0_energy">    -11.61149236 </i>
   </energy>
  </scstep>
  <scstep>
   <time name="dav">    0.27    0.27</time>
   <time name="total">   22.88   22.90</time>
   <energy>
    <i name="alphaZ">      0.14715018 </i>
    <i name="ewald">    184.12560187 </i>
    <i name="hartreedc">   -662.71446388 </i>
    <i name="XCdc">     41.75352368 </i>
    <i name="pawpsdc">   1030.86226164 </i>
    <i name="pawaedc">  -1033.73514882 </i>
    <i name="eentropy">     -0.00000000 </i>
    <i name="bandstr">   -159.38633026 </i>
    <i name="atom">    587.33585529 </i>
    <i name="e_fr_energy">    -11.61155030 </i>
    <i name="e_wo_entrp">    -11.61155030 </i>
    <i name="e_0_energy">    -11.61155030 </i>
   </energy>
  </scstep>
  <structure>
   <crystal>
    <varray name="basis" >
     <v>      14.00000000       0.00000000       0.00000000 </v>
     <v>       0.00000000      14.00000000       0.00000000 </v>
     <v>       0.00000000       0.00000000      15.15034000 </v>
    </varray>
    <i name="volume">   2969.46664000 </i>
    <varray name="rec_basis" >
     <v>       0.07142857       0.00000000       0.00000000 </v>
     <v>       0.00000000       0.07142857       0.00000000 </v>
     <v>       0.00000000       0.00000000       0.06600512 </v>
    </varray>
   </crystal>
   <varray name="positions" >
    <v>       0.50000000       0.50000000       0.53501453 </v>
    <v>       0.50000000       0.50000000       0.46498547 </v>
   </varray>
  </structure>
  <varray name="forces" >
   <v>       0.00000000      -0.00000000      12.40097528 </v>
   <v>       0.00000000       0.00000000     -12.40097528 </v>
  </varray>
  <varray name="stress" >
   <v>      -0.02448554      -0.00000000       0.00000000 </v>
   <v>       0.00000000      -0.02448554       0.00000000 </v>
   <v>       0.00000000       0.00000000       7.05763974 </v>
  </varray>
  <energy>
   <i name="e_fr_energy">    -11.61155030 </i>
   <i name="e_wo_entrp">    -11.61155030 </i>
   <i name="e_0_energy">     -0.00000000 </i>
  </energy>
  <time name="totalsc">  310.90  311.10</time>
 </calculation>
 <calculation>
  <scstep>
   <time name="dav">    0.24    0.24</time>
   <time name="total">   22.99   23.01</time>
   <energy>
    <i name="alphaZ">      0.14715018 </i>
    <i name="ewald">    161.11492863 </i>
    <i name="hartreedc">   -649.61731075 </i>
    <i name="XCdc">     41.33354459 </i>
    <i name="pawpsdc">   1031.00374970 </i>
    <i name="pawaedc">  -1033.87664706 </i>
    <i name="eentropy">     -0.00000000 </i>
    <i name="bandstr">   -149.54878155 </i>
    <i name="atom">    587.33585529 </i>
    <i name="e_fr_energy">    -12.10751097 </i>
    <i name="e_wo_entrp">    -12.10751097 </i>
    <i name="e_0_energy">    -12.10751097 </i>
   </energy>
  </scstep>
  <scstep>
   <time name="dav">    0.24    0.24</time>
   <time name="total">   22.83   22.85</time>
   <energy>
    <i name="e_fr_energy">    -12.07957796 </i>
    <i name="e_wo_entrp">    -12.07957796 </i>
    <i name="e_0_energy">    -12.07957796 </i>
   </energy>
  </scstep>
  <scstep>
   <time name="dav">    0.29    0.29</time>
   <time name="total">   22.89   22.90</time>
   <energy>
    <i name="e_fr_energy">    -12.06567393 </i>
    <i name="e_wo_entrp">    -12.06567393 </i>
    <i name="e_0_energy">    -12.06567393 </i>
   </energy>
  </scstep>
  <scstep>
   <time name="dav">    0.24    0.24</time>
   <time name="total">   22.85   22.86</time>
   <energy>
    <i name="e_fr_energy">    -12.06605492 </i>
    <i name="e_wo_entrp">    -12.06605492 </i>
    <i name="e_0_energy">    -12.06605492 </i>
   </energy>
  </scstep>
  <scstep>
   <time name="dav">    0.24    0.24</time>
   <time name="total">   22.84   22.85</time>
   <energy>
    <i name="e_fr_energy">    -12.06625487 </i>
    <i name="e_wo_entrp">    -12.06625487 </i>
    <i name="e_0_energy">    -12.06625487 </i>
   </energy>
  </scstep>
  <scstep>
   <time name="dav">    0.24    0.24</time>
   <time name="total">   22.86   22.88</time>
   <energy>
    <i name="e_fr_energy">    -12.06648657 </i>
    <i name="e_wo_entrp">    -12.06648657 </i>
    <i name="e_0_energy">    -12.06648657 </i>
   </energy>
  </scstep>
  <scstep>
   <time name="dav">    0.22    0.22</time>
   <time name="total">   22.93   22.95</time>
   <energy>
    <i name="e_fr_energy">    -12.06671277 </i>
    <i name="e_wo_entrp">    -12.06671277 </i>
    <i name="e_0_energy">    -12.06671277 </i>
   </energy>
  </scstep>
  <scstep>
   <time name="dav">    0.22    0.22</time>
   <time name="total">   22.93   22.95</time>
   <energy>
    <i name="e_fr_energy">    -12.06695425 </i>
    <i name="e_wo_entrp">    -12.06695425 </i>
    <i name="e_0_energy">    -12.06695425 </i>
   </energy>
  </scstep>
  <scstep>
   <time name="dav">    0.24    0.24</time>
   <time name="total">   22.97   22.98</time>
   <energy>
    <i name="e_fr_energy">    -12.06706393 </i>
    <i name="e_wo_entrp">    -12.06706393 </i>
    <i name="e_0_energy">    -12.06706393 </i>
   </energy>
  </scstep>
  <scstep>
   <time name="dav">    0.22    0.22</time>
   <time name="total">   22.94   22.96</time>
   <energy>
    <i name="e_fr_energy">    -12.06718061 </i>
    <i name="e_wo_entrp">    -12.06718060 </i>
    <i name="e_0_energy">    -12.06718060 </i>
   </energy>
  </scstep>
  <scstep>
   <time name="dav">    0.24    0.24</time>
   <time name="total">   22.82   22.84</time>
   <energy>
    <i name="alphaZ">      0.14715018 </i>
    <i name="ewald">    161.11492863 </i>
    <i name="hartreedc">   -644.48544313 </i>
    <i name="XCdc">     41.05318063 </i>
    <i name="pawpsdc">    874.99782471 </i>
    <i name="pawaedc">   -877.78964897 </i>
    <i name="eentropy">     -0.00000000 </i>
    <i name="bandstr">   -154.44108074 </i>
    <i name="atom">    587.33585529 </i>
    <i name="e_fr_energy">    -12.06723340 </i>
    <i name="e_wo_entrp">    -12.06723340 </i>
    <i name="e_0_energy">    -12.06723340 </i>
   </energy>
  </scstep>
  <structure>
   <crystal>
    <varray name="basis" >
     <v>      14.00000000       0.00000000       0.00000000 </v>
     <v>       0.00000000      14.00000000       0.00000000 </v>
     <v>       0.00000000       0.00000000      15.15034000 </v>
    </varray>
    <i name="volume">   2969.46664000 </i>
    <varray name="rec_basis" >
     <v>       0.07142857       0.00000000       0.00000000 </v>
     <v>       0.00000000       0.07142857       0.00000000 </v>
     <v>       0.00000000       0.00000000       0.06600512 </v>
    </varray>
   </crystal>
   <varray name="positions" >
    <v>       0.50000000       0.50000000       0.53768025 </v>
    <v>       0.50000000       0.50000000       0.46231975 </v>
   </varray>
  </structure>
  <varray name="forces" >
   <v>       0.00000000       0.00000000       0.02462787 </v>
   <v>       0.00000000      -0.00000000      -0.02462787 </v>
  </varray>
  <varray name="stress" >
   <v>      -0.02102808       0.00000000       0.00000000 </v>
   <v>      -0.00000000      -0.02102808       0.00000000 </v>
   <v>       0.00000000       0.00000000      -0.01370004 </v>
  </varray>
  <energy>
   <i name="e_fr_energy">    -12.06723340 </i>
   <i name="e_wo_entrp">    -12.06723340 </i>
   <i name="e_0_energy">     -0.00000000 </i>
  </energy>
  <time name="totalsc">  309.86  310.14</time>
  <eigenvalues>
   <array>
    <dimension dim="1">band</dimension>
    <dimension dim="2">kpoint</dimension>
    <dimension dim="3">spin</dimension>
    <field>eigene</field>
    <field>occ</field>
    <set>
     <set comment="spin 1">
      <set comment="kpoint 1">
       <r>  -29.6271    1.0000 </r>
       <r>  -14.3409    1.0000 </r>
       <r>  -11.9391    1.0000 </r>
       <r>  -11.9391    1.0000 </r>
       <r>   -9.3744    1.0000 </r>
       <r>   -2.3594    0.0000 </r>
       <r>   -2.3594    0.0000 </r>
       <r>   -0.3817    0.0000 </r>
       <r>    0.1923    0.0000 </r>
       <r>    0.3601    0.0000 </r>
       <r>    0.4477    0.0000 </r>
       <r>    0.4477    0.0000 </r>
      </set>
     </set>
    </set>
   </array>
  </eigenvalues>
  <separator name="orbital magnetization" >
   <v name="MAGDIPOLOUT">      0.00000000      0.00000000      0.00000000</v>
  </separator>
  <dos>
   <i name="efermi">     -6.98076545 </i>
   <total>
    <array>
     <dimension dim="1">gridpoints</dimension>
     <dimension dim="2">spin</dimension>
     <field>energy</field>
     <field>total</field>
     <field>integrated</field>
     <set>
      <set comment="spin 1">
       <r>   -31.1309     0.0000     0.0000 </r>
       <r>   -31.0206     0.0000     0.0000 </r>
       <r>   -30.9103     0.0000     0.0000 </r>
       <r>   -30.8000     0.0000     0.0000 </r>
       <r>   -30.6898     0.0000     0.0000 </r>
       <r>   -30.5795     0.0000     0.0000 </r>
       <r>   -30.4692     0.0040     0.0004 </r>
       <r>   -30.3589     0.0080     0.0013 </r>
       <r>   -30.2487     0.0241     0.0040 </r>
       <r>   -30.1384     0.0724     0.0120 </r>
       <r>   -30.0281     0.2145     0.0356 </r>
       <r>   -29.9178     0.6164     0.1036 </r>
       <r>   -29.8076     1.6234     0.2826 </r>
       <r>   -29.6973     3.4481     0.6629 </r>
       <r>   -29.5870     4.8516     1.1979 </r>
       <r>   -29.4767     3.9756     1.6363 </r>
       <r>   -29.3665     2.0521     1.8626 </r>
       <r>   -29.2562     0.8127     1.9522 </r>
       <r>   -29.1459     0.2874     1.9839 </r>
       <r>   -29.0356     0.0975     1.9946 </r>
       <r>   -28.9254     0.0326     1.9982 </r>
       <r>   -28.8151     0.0000     2.0000 </r>
       <r>   -28.7048     0.0000     2.0000 </r>
       <r>   -28.5945     0.0000     2.0000 </r>
       <r>   -28.4843     0.0000     2.0000 </r>
       <r>   -28.3740     0.0000     2.0000 </r>
       <r>   -28.2637     0.0000     2.0000 </r>
       <r>   -28.1534     0.0000     2.0000 </r>
       <r>   -28.0432     0.0000     2.0000 </r>
       <r>   -27.9329     0.0000     2.0000 </r>
       <r>   -27.8226     0.0000     2.0000 </r>
       <r>   -27.7124     0.0000     2.0000 </r>
       <r>   -27.6021     0.0000     2.0000 </r>
       <r>   -27.4918     0.0000     2.0000 </r>
       <r>   -27.3815     0.0000     2.0000 </r>
       <r>   -27.2713     0.0000     2.0000 </r>
       <r>   -27.1610     0.0000     2.0000 </r>
       <r>   -27.0507     0.0000     2.0000 </r>
       <r>   -26.9404     0.0000     2.0000 </r>
       <r>   -26.8302     0.0000     2.0000 </r>
       <r>   -26.7199     0.0000     2.0000 </r>
       <r>   -26.6096     0.0000     2.0000 </r>
       <r>   -26.4993     0.0000     2.0000 </r>
       <r>   -26.3891     0.0000     2.0000 </r>
       <r>   -26.2788     0.0000     2.0000 </r>
       <r>   -26.1685     0.0000     2.0000 </r>
       <r>   -26.0582     0.0000     2.0000 </r>
       <r>   -25.9480     0.0000     2.0000 </r>
       <r>   -25.8377     0.0000     2.0000 </r>
       <r>   -25.7274     0.0000     2.0000 </r>
       <r>   -25.6171     0.0000     2.0000 </r>
       <r>   -25.5069     0.0000     2.0000 </r>
       <r>   -25.3966     0.0000     2.0000 </r>
       <r>   -25.2863     0.0000     2.0000 </r>
       <r>   -25.1760     0.0000     2.0000 </r>
       <r>   -25.0658     0.0000     2.0000 </r>
       <r>   -24.9555     0.0000     2.0000 </r>
       <r>   -24.8452     0.0000     2.0000 </r>
       <r>   -24.7349     0.0000     2.0000 </r>
       <r>   -24.6247     0.0000     2.0000 </r>
       <r>   -24.5144     0.0000     2.0000 </r>
       <r>   -24.4041     0.0000     2.0000 </r>
       <r>   -24.2938     0.0000     2.0000 </r>
       <r>   -24.1836     0.0000     2.0000 </r>
       <r>   -24.0733     0.0000     2.0000 </r>
       <r>   -23.9630     0.0000     2.0000 </r>
       <r>   -23.8527     0.0000     2.0000 </r>
       <r>   -23.7425     0.0000     2.0000 </r>
       <r>   -23.6322     0.0000     2.0000 </r>
       <r>   -23.5219     0.0000     2.0000 </r>
       <r>   -23.4117     0.0000     2.0000 </r>
       <r>   -23.3014     0.0000     2.0000 </r>
       <r>   -23.1911     0.0000     2.0000 </r>
       <r>   -23.0808     0.0000     2.0000 </r>
       <r>   -22.9706     0.0000     2.0000 </r>
       <r>   -22.8603     0.0000     2.0000 </r>
       <r>   -22.7500     0.0000     2.0000 </r>
       <r>   -22.6397     0.0000     2.0000 </r>
       <r>   -22.5295     0.0000     2.0000 </r>
       <r>   -22.4192     0.0000     2.0000 </r>
       <r>   -22.3089     0.0000     2.0000 </r>
       <r>   -22.1986     0.0000     2.0000 </r>
       <r>   -22.0884     0.0000     2.0000 </r>
       <r>   -21.9781     0.0000     2.0000 </r>
       <r>   -21.8678     0.0000     2.0000 </r>
       <r>   -21.7575     0.0000     2.0000 </r>
       <r>   -21.6473     0.0000     2.0000 </r>
       <r>   -21.5370     0.0000     2.0000 </r>
       <r>   -21.4267     0.0000     2.0000 </r>
       <r>   -21.3164     0.0000     2.0000 </r>
       <r>   -21.2062     0.0000     2.0000 </r>
       <r>   -21.0959     0.0000     2.0000 </r>
       <r>   -20.9856     0.0000     2.0000 </r>
       <r>   -20.8753     0.0000     2.0000 </r>
       <r>   -20.7651     0.0000     2.0000 </r>
       <r>   -20.6548     0.0000     2.0000 </r>
       <r>   -20.5445     0.0000     2.0000 </r>
       <r>   -20.4342     0.0000     2.0000 </r>
       <r>   -20.3240     0.0000     2.0000 </r>
       <r>   -20.2137     0.0000     2.0000 </r>
       <r>   -20.1034     0.0000     2.0000 </r>
       <r>   -19.9931     0.0000     2.0000 </r>
       <r>   -19.8829     0.0000     2.0000 </r>
       <r>   -19.7726     0.0000     2.0000 </r>
       <r>   -19.6623     0.0000     2.0000 </r>
       <r>   -19.5520     0.0000     2.0000 </r>
       <r>   -19.4418     0.0000     2.0000 </r>
       <r>   -19.3315     0.0000     2.0000 </r>
       <r>   -19.2212     0.0000     2.0000 </r>
       <r>   -19.1109     0.0000     2.0000 </r>
       <r>   -19.0007     0.0000     2.0000 </r>
       <r>   -18.8904     0.0000     2.0000 </r>
       <r>   -18.7801     0.0000     2.0000 </r>
       <r>   -18.6699     0.0000     2.0000 </r>
       <r>   -18.5596     0.0000     2.0000 </r>
       <r>   -18.4493     0.0000     2.0000 </r>
       <r>   -18.3390     0.0000     2.0000 </r>
       <r>   -18.2288     0.0000     2.0000 </r>
       <r>   -18.1185     0.0000     2.0000 </r>
       <r>   -18.0082     0.0000     2.0000 </r>
       <r>   -17.8979     0.0000     2.0000 </r>
       <r>   -17.7877     0.0000     2.0000 </r>
       <r>   -17.6774     0.0000     2.0000 </r>
       <r>   -17.5671     0.0000     2.0000 </r>
       <r>   -17.4568     0.0000     2.0000 </r>
       <r>   -17.3466     0.0000     2.0000 </r>
       <r>   -17.2363     0.0000     2.0000 </r>
       <r>   -17.1260     0.0000     2.0000 </r>
       <r>   -17.0157     0.0000     2.0000 </r>
       <r>   -16.9055     0.0000     2.0000 </r>
       <r>   -16.7952     0.0000     2.0000 </r>
       <r>   -16.6849     0.0000     2.0000 </r>
       <r>   -16.5746     0.0000     2.0000 </r>
       <r>   -16.4644     0.0000     2.0000 </r>
       <r>   -16.3541     0.0000     2.0000 </r>
       <r>   -16.2438     0.0000     2.0000 </r>
       <r>   -16.1335     0.0000     2.0000 </r>
       <r>   -16.0233     0.0000     2.0000 </r>
       <r>   -15.9130     0.0000     2.0000 </r>
       <r>   -15.8027     0.0000     2.0000 </r>
       <r>   -15.6924     0.0000     2.0000 </r>
       <r>   -15.5822     0.0000     2.0000 </r>
       <r>   -15.4719     0.0000     2.0000 </r>
       <r>   -15.3616     0.0000     2.0000 </r>
       <r>   -15.2513     0.0000     2.0000 </r>
       <r>   -15.1411     0.0061     2.0007 </r>
       <r>   -15.0308     0.0122     2.0020 </r>
       <r>   -14.9205     0.0367     2.0061 </r>
       <r>   -14.8102     0.1096     2.0181 </r>
       <r>   -14.7000     0.3222     2.0537 </r>
       <r>   -14.5897     0.9042     2.1534 </r>
       <r>   -14.4794     2.2389     2.4003 </r>
       <r>   -14.3692     4.1652     2.8596 </r>
       <r>   -14.2589     4.7963     3.3885 </r>
       <r>   -14.1486     3.2320     3.7449 </r>
       <r>   -14.0383     1.4739     3.9074 </r>
       <r>   -13.9281     0.5519     3.9683 </r>
       <r>   -13.8178     0.1911     3.9894 </r>
       <r>   -13.7075     0.0643     3.9965 </r>
       <r>   -13.5972     0.0215     3.9988 </r>
       <r>   -13.4870     0.0000     4.0000 </r>
       <r>   -13.3767     0.0000     4.0000 </r>
       <r>   -13.2664     0.0000     4.0000 </r>
       <r>   -13.1561     0.0000     4.0000 </r>
       <r>   -13.0459     0.0000     4.0000 </r>
       <r>   -12.9356     0.0000     4.0000 </r>
       <r>   -12.8253     0.0051     4.0006 </r>
       <r>   -12.7150     0.0103     4.0017 </r>
       <r>   -12.6048     0.0311     4.0051 </r>
       <r>   -12.4945     0.0933     4.0154 </r>
       <r>   -12.3842     0.2783     4.0461 </r>
       <r>   -12.2739     0.8131     4.1358 </r>
       <r>   -12.1637     2.2408     4.3829 </r>
       <r>   -12.0534     5.2979     4.9671 </r>
       <r>   -11.9431     9.0019     5.9598 </r>
       <r>   -11.8328     9.1853     6.9727 </r>
       <r>   -11.7226     5.5830     7.5883 </r>
       <r>   -11.6123     2.4023     7.8533 </r>
       <r>   -11.5020     0.8779     7.9501 </r>
       <r>   -11.3917     0.3012     7.9833 </r>
       <r>   -11.2815     0.1011     7.9944 </r>
       <r>   -11.1712     0.0337     7.9982 </r>
       <r>   -11.0609     0.0000     8.0000 </r>
       <r>   -10.9506     0.0000     8.0000 </r>
       <r>   -10.8404     0.0000     8.0000 </r>
       <r>   -10.7301     0.0000     8.0000 </r>
       <r>   -10.6198     0.0000     8.0000 </r>
       <r>   -10.5095     0.0000     8.0000 </r>
       <r>   -10.3993     0.0000     8.0000 </r>
       <r>   -10.2890     0.0000     8.0000 </r>
       <r>   -10.1787     0.0058     8.0006 </r>
       <r>   -10.0684     0.0117     8.0019 </r>
       <r>    -9.9582     0.0352     8.0058 </r>
       <r>    -9.8479     0.1051     8.0174 </r>
       <r>    -9.7376     0.3095     8.0515 </r>
       <r>    -9.6274     0.8710     8.1476 </r>
       <r>    -9.5171     2.1719     8.3871 </r>
       <r>    -9.4068     4.0999     8.8392 </r>
       <r>    -9.2965     4.8192     9.3706 </r>
       <r>    -9.1863     3.3083     9.7355 </r>
       <r>    -9.0760     1.5253     9.9037 </r>
       <r>    -8.9657     0.5739     9.9670 </r>
       <r>    -8.8554     0.1990     9.9889 </r>
       <r>    -8.7452     0.0671     9.9963 </r>
       <r>    -8.6349     0.0224     9.9988 </r>
       <r>    -8.5246     0.0000    10.0000 </r>
       <r>    -8.4143     0.0000    10.0000 </r>
       <r>    -8.3041     0.0000    10.0000 </r>
       <r>    -8.1938     0.0000    10.0000 </r>
       <r>    -8.0835     0.0000    10.0000 </r>
       <r>    -7.9732     0.0000    10.0000 </r>
       <r>    -7.8630     0.0000    10.0000 </r>
       <r>    -7.7527     0.0000    10.0000 </r>
       <r>    -7.6424     0.0000    10.0000 </r>
       <r>    -7.5321     0.0000    10.0000 </r>
       <r>    -7.4219     0.0000    10.0000 </r>
       <r>    -7.3116     0.0000    10.0000 </r>
       <r>    -7.2013     0.0000    10.0000 </r>
       <r>    -7.0910     0.0000    10.0000 </r>
       <r>    -6.9808     0.0000    10.0000 </r>
       <r>    -6.8705     0.0000    10.0000 </r>
       <r>    -6.7602     0.0000    10.0000 </r>
       <r>    -6.6499     0.0000    10.0000 </r>
       <r>    -6.5397     0.0000    10.0000 </r>
       <r>    -6.4294     0.0000    10.0000 </r>
       <r>    -6.3191     0.0000    10.0000 </r>
       <r>    -6.2088     0.0000    10.0000 </r>
       <r>    -6.0986     0.0000    10.0000 </r>
       <r>    -5.9883     0.0000    10.0000 </r>
       <r>    -5.8780     0.0000    10.0000 </r>
       <r>    -5.7677     0.0000    10.0000 </r>
       <r>    -5.6575     0.0000    10.0000 </r>
       <r>    -5.5472     0.0000    10.0000 </r>
       <r>    -5.4369     0.0000    10.0000 </r>
       <r>    -5.3266     0.0000    10.0000 </r>
       <r>    -5.2164     0.0000    10.0000 </r>
       <r>    -5.1061     0.0000    10.0000 </r>
       <r>    -4.9958     0.0000    10.0000 </r>
       <r>    -4.8856     0.0000    10.0000 </r>
       <r>    -4.7753     0.0000    10.0000 </r>
       <r>    -4.6650     0.0000    10.0000 </r>
       <r>    -4.5547     0.0000    10.0000 </r>
       <r>    -4.4445     0.0000    10.0000 </r>
       <r>    -4.3342     0.0000    10.0000 </r>
       <r>    -4.2239     0.0000    10.0000 </r>
       <r>    -4.1136     0.0000    10.0000 </r>
       <r>    -4.0034     0.0000    10.0000 </r>
       <r>    -3.8931     0.0000    10.0000 </r>
       <r>    -3.7828     0.0000    10.0000 </r>
       <r>    -3.6725     0.0000    10.0000 </r>
       <r>    -3.5623     0.0000    10.0000 </r>
       <r>    -3.4520     0.0000    10.0000 </r>
       <r>    -3.3417     0.0000    10.0000 </r>
       <r>    -3.2314     0.0059    10.0007 </r>
       <r>    -3.1212     0.0119    10.0020 </r>
       <r>    -3.0109     0.0358    10.0059 </r>
       <r>    -2.9006     0.1075    10.0178 </r>
       <r>    -2.7903     0.3201    10.0531 </r>
       <r>    -2.6801     0.9308    10.1557 </r>
       <r>    -2.5698     2.5325    10.4350 </r>
       <r>    -2.4595     5.8046    11.0751 </r>
       <r>    -2.3492     9.3104    12.1018 </r>
       <r>    -2.2390     8.8470    13.0774 </r>
       <r>    -2.1287     5.0833    13.6379 </r>
       <r>    -2.0184     2.1232    13.8721 </r>
       <r>    -1.9081     0.7666    13.9566 </r>
       <r>    -1.7979     0.2619    13.9855 </r>
       <r>    -1.6876     0.0878    13.9952 </r>
       <r>    -1.5773     0.0292    13.9984 </r>
       <r>    -1.4670     0.0000    14.0000 </r>
       <r>    -1.3568     0.0000    14.0000 </r>
       <r>    -1.2465     0.0032    14.0004 </r>
       <r>    -1.1362     0.0064    14.0011 </r>
       <r>    -1.0259     0.0192    14.0032 </r>
       <r>    -0.9157     0.0577    14.0095 </r>
       <r>    -0.8054     0.1717    14.0285 </r>
       <r>    -0.6951     0.5005    14.0837 </r>
       <r>    -0.5849     1.3506    14.2326 </r>
       <r>    -0.4746     3.0520    14.5692 </r>
       <r>    -0.3643     4.7845    15.0968 </r>
       <r>    -0.2540     4.5115    15.5943 </r>
       <r>    -0.1438     2.9642    15.9212 </r>
       <r>    -0.0335     2.5305    16.2002 </r>
       <r>     0.0768     4.2200    16.6656 </r>
       <r>     0.1871     7.9561    17.5429 </r>
       <r>     0.2973    12.3334    18.9030 </r>
       <r>     0.4076    15.6492    20.6287 </r>
       <r>     0.5179    14.7675    22.2579 </r>
       <r>     0.6282     9.2802    23.2813 </r>
       <r>     0.7384     4.1588    23.7399 </r>
       <r>     0.8487     1.5514    23.9110 </r>
       <r>     0.9590     0.5366    23.9701 </r>
       <r>     1.0693     0.1750    23.9904 </r>
       <r>     1.1795     0.0483    23.9973 </r>
       <r>     1.2898     0.0000    24.0000 </r>
       <r>     1.4001     0.0000    24.0000 </r>
       <r>     1.5104     0.0000    24.0000 </r>
       <r>     1.6206     0.0000    24.0000 </r>
       <r>     1.7309     0.0000    24.0000 </r>
       <r>     1.8412     0.0000    24.0000 </r>
       <r>     1.9515     0.0000    24.0000 </r>
      </set>
     </set>
    </array>
   </total>
  </dos>
 </calculation>
 <structure name="finalpos" >
  <crystal>
   <varray name="basis" >
    <v>      14.00000000       0.00000000       0.00000000 </v>
    <v>       0.00000000      14.00000000       0.00000000 </v>
    <v>       0.00000000       0.00000000      15.15034000 </v>
   </varray>
   <i name="volume">   2969.46664000 </i>
   <varray name="rec_basis" >
    <v>       0.07142857       0.00000000       0.00000000 </v>
    <v>       0.00000000       0.07142857       0.00000000 </v>
    <v>       0.00000000       0.00000000       0.06600512 </v>
   </varray>
  </crystal>
  <varray name="positions" >
   <v>       0.50000000       0.50000000       0.53768025 </v>
   <v>       0.50000000       0.50000000       0.46231975 </v>
  </varray>
 </structure>
</modeling>
